MODEL 1
REMARK minimizedAffinity -6.8132515
REMARK minimizedRMSD -1
REMARK  Name = /home/tchapet/Post-Doc/ARTICLES-DOSSIERS-DES-ARTICLES-EN-REDACTION/NOUVELS-AXES-DE-RECHERCHE-A-REGARDER-URGEMMENT/ARTICLES-EN-REDACTIONS/ARTICLE_MVOTO/Paper2_Sensors_ActuatorsB/docking_rerun/ligands/1712.pdb
REMARK  6 active torsions:
REMARK  status: ('A' for Active; 'I' for Inactive)
REMARK    1  A    between atoms: C4_6  and  C5_7
REMARK    2  A    between atoms: C5_7  and  N2_8
REMARK    3  A    between atoms: N2_8  and  C6_9
REMARK    4  A    between atoms: C9_12  and  S1_15
REMARK    5  A    between atoms: S1_15  and  N3_18
REMARK    6  A    between atoms: N3_18  and  C12_19
REMARK                            x       y       z     vdW  Elec       q    Type
REMARK                         _______ _______ _______ _____ _____    ______ ____
ROOT
ATOM      1  C6  UNL     1     -20.864 -30.405   8.517  0.00  0.00    +0.027 A 
ATOM      2  C7  UNL     1     -19.553 -30.900   8.427  0.00  0.00    +0.025 A 
ATOM      3  C8  UNL     1     -18.768 -31.043   9.574  0.00  0.00    +0.030 A 
ATOM      4  C9  UNL     1     -19.280 -30.689  10.828  0.00  0.00    +0.109 A 
ATOM      5  C10 UNL     1     -20.587 -30.199  10.927  0.00  0.00    +0.030 A 
ATOM      6  C11 UNL     1     -21.375 -30.055   9.781  0.00  0.00    +0.025 A 
ENDROOT
BRANCH   4   7
ATOM      7  S1  UNL     1     -18.278 -30.860  12.266  0.00  0.00    +0.073 S 
ATOM      8  O2  UNL     1     -18.251 -29.551  13.002  0.00  0.00    -0.150 OA
ATOM      9  O3  UNL     1     -16.874 -31.243  11.889  0.00  0.00    -0.150 OA
BRANCH   7  10
ATOM     10  N3  UNL     1     -18.937 -32.087  13.297  0.00  0.00    -0.199 N 
ATOM     11  H8  UNL     1     -18.753 -33.087  13.055  0.00  0.00    +0.175 HD
BRANCH  10  12
ATOM     12  C12 UNL     1     -19.695 -31.764  14.469  0.00  0.00    +0.138 A 
ATOM     13  C13 UNL     1     -21.078 -31.557  14.378  0.00  0.00    +0.045 A 
ATOM     14  C14 UNL     1     -21.803 -31.251  15.532  0.00  0.00    +0.005 A 
ATOM     15  C15 UNL     1     -21.148 -31.155  16.760  0.00  0.00    +0.020 A 
ATOM     16  C16 UNL     1     -19.769 -31.367  16.815  0.00  0.00    +0.113 A 
ATOM     17  N4  UNL     1     -19.080 -31.663  15.682  0.00  0.00    -0.239 NA
ENDBRANCH  10  12
ENDBRANCH   7  10
ENDBRANCH   4   7
BRANCH   1  18
ATOM     18  N2  UNL     1     -21.648 -30.272   7.317  0.00  0.00    -0.340 N 
ATOM     19  H3  UNL     1     -22.521 -29.696   7.361  0.00  0.00    +0.146 HD
BRANCH  18  20
ATOM     20  C5  UNL     1     -21.266 -30.875   6.038  0.00  0.00    +0.143 C 
BRANCH  20  26
ATOM     21  O1  UNL     1     -23.214 -28.513   5.476  0.00  0.00    -0.268 OA
ATOM     22  C1  UNL     1     -22.209 -28.752   4.758  0.00  0.00    +0.266 C 
ATOM     23  N1  UNL     1     -21.829 -27.965   3.634  0.00  0.00    -0.176 NA
ATOM     24  C2  UNL     1     -20.754 -28.551   3.211  0.00  0.00    +0.066 A 
ATOM     25  C3  UNL     1     -20.389 -29.665   3.964  0.00  0.00    +0.024 A 
ATOM     26  C4  UNL     1     -21.269 -29.848   4.943  0.00  0.00    +0.043 C 
ATOM     27  C17 UNL     1     -19.233 -30.370   3.623  0.00  0.00    +0.048 A 
ATOM     28  S2  UNL     1     -18.518 -31.724   4.319  0.00  0.00    -0.075 S 
ATOM     29  C18 UNL     1     -17.251 -31.737   3.198  0.00  0.00    +0.157 A 
ATOM     30  N5  UNL     1     -17.360 -30.727   2.300  0.00  0.00    -0.247 NA
ATOM     31  C19 UNL     1     -18.461 -29.968   2.537  0.00  0.00    +0.079 A 
ATOM     32  C20 UNL     1     -18.828 -28.850   1.769  0.00  0.00    +0.031 A 
ATOM     33  C21 UNL     1     -19.990 -28.128   2.110  0.00  0.00    +0.028 A 
ENDBRANCH  20  26
ENDBRANCH  18  20
ENDBRANCH   1  18
TORSDOF 6
ENDMDL
MODEL 2
REMARK minimizedAffinity -6.76924801
REMARK minimizedRMSD -1
REMARK  Name = /home/tchapet/Post-Doc/ARTICLES-DOSSIERS-DES-ARTICLES-EN-REDACTION/NOUVELS-AXES-DE-RECHERCHE-A-REGARDER-URGEMMENT/ARTICLES-EN-REDACTIONS/ARTICLE_MVOTO/Paper2_Sensors_ActuatorsB/docking_rerun/ligands/1712.pdb
REMARK  6 active torsions:
REMARK  status: ('A' for Active; 'I' for Inactive)
REMARK    1  A    between atoms: C4_6  and  C5_7
REMARK    2  A    between atoms: C5_7  and  N2_8
REMARK    3  A    between atoms: N2_8  and  C6_9
REMARK    4  A    between atoms: C9_12  and  S1_15
REMARK    5  A    between atoms: S1_15  and  N3_18
REMARK    6  A    between atoms: N3_18  and  C12_19
REMARK                            x       y       z     vdW  Elec       q    Type
REMARK                         _______ _______ _______ _____ _____    ______ ____
ROOT
ATOM      1  C6  UNL     1      -1.122 -10.091   3.414  0.00  0.00    +0.027 A 
ATOM      2  C7  UNL     1      -1.564 -10.433   4.702  0.00  0.00    +0.025 A 
ATOM      3  C8  UNL     1      -1.084  -9.750   5.822  0.00  0.00    +0.030 A 
ATOM      4  C9  UNL     1      -0.150  -8.718   5.672  0.00  0.00    +0.109 A 
ATOM      5  C10 UNL     1       0.294  -8.368   4.391  0.00  0.00    +0.030 A 
ATOM      6  C11 UNL     1      -0.186  -9.050   3.269  0.00  0.00    +0.025 A 
ENDROOT
BRANCH   4   7
ATOM      7  S1  UNL     1       0.460  -7.873   7.091  0.00  0.00    +0.073 S 
ATOM      8  O2  UNL     1       1.844  -8.369   7.400  0.00  0.00    -0.150 OA
ATOM      9  O3  UNL     1      -0.428  -8.123   8.277  0.00  0.00    -0.150 OA
BRANCH   7  10
ATOM     10  N3  UNL     1       0.515  -6.169   6.780  0.00  0.00    -0.199 N 
ATOM     11  H8  UNL     1      -0.332  -5.599   7.003  0.00  0.00    +0.175 HD
BRANCH  10  12
ATOM     12  C12 UNL     1       1.687  -5.532   6.256  0.00  0.00    +0.138 A 
ATOM     13  C13 UNL     1       1.760  -5.201   4.897  0.00  0.00    +0.045 A 
ATOM     14  C14 UNL     1       2.907  -4.574   4.404  0.00  0.00    +0.005 A 
ATOM     15  C15 UNL     1       3.965  -4.283   5.266  0.00  0.00    +0.020 A 
ATOM     16  C16 UNL     1       3.860  -4.627   6.615  0.00  0.00    +0.113 A 
ATOM     17  N4  UNL     1       2.736  -5.238   7.076  0.00  0.00    -0.239 NA
ENDBRANCH  10  12
ENDBRANCH   7  10
ENDBRANCH   4   7
BRANCH   1  18
ATOM     18  N2  UNL     1      -1.637 -10.812   2.279  0.00  0.00    -0.340 N 
ATOM     19  H3  UNL     1      -1.954 -11.799   2.425  0.00  0.00    +0.146 HD
BRANCH  18  20
ATOM     20  C5  UNL     1      -1.767 -10.221   0.945  0.00  0.00    +0.143 C 
BRANCH  20  26
ATOM     21  O1  UNL     1       0.436 -12.399   1.249  0.00  0.00    -0.268 OA
ATOM     22  C1  UNL     1      -0.074 -12.096   0.139  0.00  0.00    +0.266 C 
ATOM     23  N1  UNL     1       0.269 -12.725  -1.092  0.00  0.00    -0.176 NA
ATOM     24  C2  UNL     1      -0.490 -12.125  -1.953  0.00  0.00    +0.066 A 
ATOM     25  C3  UNL     1      -1.311 -11.148  -1.393  0.00  0.00    +0.024 A 
ATOM     26  C4  UNL     1      -1.088 -11.076  -0.085  0.00  0.00    +0.043 C 
ATOM     27  C17 UNL     1      -2.194 -10.445  -2.215  0.00  0.00    +0.048 A 
ATOM     28  S2  UNL     1      -3.308  -9.236  -1.863  0.00  0.00    -0.075 S 
ATOM     29  C18 UNL     1      -3.808  -9.108  -3.474  0.00  0.00    +0.157 A 
ATOM     30  N5  UNL     1      -3.142  -9.971  -4.280  0.00  0.00    -0.247 NA
ATOM     31  C19 UNL     1      -2.246 -10.714  -3.580  0.00  0.00    +0.079 A 
ATOM     32  C20 UNL     1      -1.416 -11.693  -4.152  0.00  0.00    +0.031 A 
ATOM     33  C21 UNL     1      -0.525 -12.412  -3.328  0.00  0.00    +0.028 A 
ENDBRANCH  20  26
ENDBRANCH  18  20
ENDBRANCH   1  18
TORSDOF 6
ENDMDL
MODEL 3
REMARK minimizedAffinity -6.7583518
REMARK minimizedRMSD -1
REMARK  Name = /home/tchapet/Post-Doc/ARTICLES-DOSSIERS-DES-ARTICLES-EN-REDACTION/NOUVELS-AXES-DE-RECHERCHE-A-REGARDER-URGEMMENT/ARTICLES-EN-REDACTIONS/ARTICLE_MVOTO/Paper2_Sensors_ActuatorsB/docking_rerun/ligands/1712.pdb
REMARK  6 active torsions:
REMARK  status: ('A' for Active; 'I' for Inactive)
REMARK    1  A    between atoms: C4_6  and  C5_7
REMARK    2  A    between atoms: C5_7  and  N2_8
REMARK    3  A    between atoms: N2_8  and  C6_9
REMARK    4  A    between atoms: C9_12  and  S1_15
REMARK    5  A    between atoms: S1_15  and  N3_18
REMARK    6  A    between atoms: N3_18  and  C12_19
REMARK                            x       y       z     vdW  Elec       q    Type
REMARK                         _______ _______ _______ _____ _____    ______ ____
ROOT
ATOM      1  C6  UNL     1     -21.566 -30.695   8.605  0.00  0.00    +0.027 A 
ATOM      2  C7  UNL     1     -21.448 -32.066   8.884  0.00  0.00    +0.025 A 
ATOM      3  C8  UNL     1     -21.122 -32.504  10.171  0.00  0.00    +0.030 A 
ATOM      4  C9  UNL     1     -20.903 -31.577  11.196  0.00  0.00    +0.109 A 
ATOM      5  C10 UNL     1     -21.022 -30.208  10.928  0.00  0.00    +0.030 A 
ATOM      6  C11 UNL     1     -21.349 -29.768   9.641  0.00  0.00    +0.025 A 
ENDROOT
BRANCH   4   7
ATOM      7  S1  UNL     1     -20.479 -32.137  12.811  0.00  0.00    +0.073 S 
ATOM      8  O2  UNL     1     -19.378 -33.155  12.702  0.00  0.00    -0.150 OA
ATOM      9  O3  UNL     1     -21.667 -32.766  13.480  0.00  0.00    -0.150 OA
BRANCH   7  10
ATOM     10  N3  UNL     1     -19.934 -30.801  13.771  0.00  0.00    -0.199 N 
ATOM     11  H8  UNL     1     -20.651 -30.234  14.278  0.00  0.00    +0.175 HD
BRANCH  10  12
ATOM     12  C12 UNL     1     -18.545 -30.479  13.902  0.00  0.00    +0.138 A 
ATOM     13  C13 UNL     1     -17.816 -30.039  12.789  0.00  0.00    +0.045 A 
ATOM     14  C14 UNL     1     -16.464 -29.721  12.936  0.00  0.00    +0.005 A 
ATOM     15  C15 UNL     1     -15.853 -29.844  14.184  0.00  0.00    +0.020 A 
ATOM     16  C16 UNL     1     -16.607 -30.286  15.272  0.00  0.00    +0.113 A 
ATOM     17  N4  UNL     1     -17.922 -30.591  15.110  0.00  0.00    -0.239 NA
ENDBRANCH  10  12
ENDBRANCH   7  10
ENDBRANCH   4   7
BRANCH   1  18
ATOM     18  N2  UNL     1     -21.906 -30.277   7.270  0.00  0.00    -0.340 N 
ATOM     19  H3  UNL     1     -22.623 -29.523   7.158  0.00  0.00    +0.146 HD
BRANCH  18  20
ATOM     20  C5  UNL     1     -21.274 -30.832   6.070  0.00  0.00    +0.143 C 
BRANCH  20  26
ATOM     21  O1  UNL     1     -23.214 -28.475   5.458  0.00  0.00    -0.268 OA
ATOM     22  C1  UNL     1     -22.208 -28.732   4.747  0.00  0.00    +0.266 C 
ATOM     23  N1  UNL     1     -21.822 -27.968   3.609  0.00  0.00    -0.176 NA
ATOM     24  C2  UNL     1     -20.748 -28.565   3.201  0.00  0.00    +0.066 A 
ATOM     25  C3  UNL     1     -20.388 -29.665   3.977  0.00  0.00    +0.024 A 
ATOM     26  C4  UNL     1     -21.271 -29.826   4.956  0.00  0.00    +0.043 C 
ATOM     27  C17 UNL     1     -19.233 -30.380   3.652  0.00  0.00    +0.048 A 
ATOM     28  S2  UNL     1     -18.525 -31.722   4.375  0.00  0.00    -0.075 S 
ATOM     29  C18 UNL     1     -17.254 -31.761   3.259  0.00  0.00    +0.157 A 
ATOM     30  N5  UNL     1     -17.357 -30.768   2.341  0.00  0.00    -0.247 NA
ATOM     31  C19 UNL     1     -18.457 -30.002   2.561  0.00  0.00    +0.079 A 
ATOM     32  C20 UNL     1     -18.818 -28.897   1.770  0.00  0.00    +0.031 A 
ATOM     33  C21 UNL     1     -19.980 -28.165   2.094  0.00  0.00    +0.028 A 
ENDBRANCH  20  26
ENDBRANCH  18  20
ENDBRANCH   1  18
TORSDOF 6
ENDMDL
MODEL 4
REMARK minimizedAffinity -6.48158693
REMARK minimizedRMSD -1
REMARK  Name = /home/tchapet/Post-Doc/ARTICLES-DOSSIERS-DES-ARTICLES-EN-REDACTION/NOUVELS-AXES-DE-RECHERCHE-A-REGARDER-URGEMMENT/ARTICLES-EN-REDACTIONS/ARTICLE_MVOTO/Paper2_Sensors_ActuatorsB/docking_rerun/ligands/1712.pdb
REMARK  6 active torsions:
REMARK  status: ('A' for Active; 'I' for Inactive)
REMARK    1  A    between atoms: C4_6  and  C5_7
REMARK    2  A    between atoms: C5_7  and  N2_8
REMARK    3  A    between atoms: N2_8  and  C6_9
REMARK    4  A    between atoms: C9_12  and  S1_15
REMARK    5  A    between atoms: S1_15  and  N3_18
REMARK    6  A    between atoms: N3_18  and  C12_19
REMARK                            x       y       z     vdW  Elec       q    Type
REMARK                         _______ _______ _______ _____ _____    ______ ____
ROOT
ATOM      1  C6  UNL     1       0.858  -7.270   0.395  0.00  0.00    +0.027 A 
ATOM      2  C7  UNL     1       1.375  -8.091  -0.620  0.00  0.00    +0.025 A 
ATOM      3  C8  UNL     1       1.080  -9.457  -0.648  0.00  0.00    +0.030 A 
ATOM      4  C9  UNL     1       0.268 -10.023   0.341  0.00  0.00    +0.109 A 
ATOM      5  C10 UNL     1      -0.255  -9.211   1.354  0.00  0.00    +0.030 A 
ATOM      6  C11 UNL     1       0.038  -7.844   1.384  0.00  0.00    +0.025 A 
ENDROOT
BRANCH   4   7
ATOM      7  S1  UNL     1      -0.086 -11.747   0.305  0.00  0.00    +0.073 S 
ATOM      8  O2  UNL     1      -0.075 -12.279   1.711  0.00  0.00    -0.150 OA
ATOM      9  O3  UNL     1       0.943 -12.481  -0.507  0.00  0.00    -0.150 OA
BRANCH   7  10
ATOM     10  N3  UNL     1      -1.649 -12.010  -0.397  0.00  0.00    -0.199 N 
ATOM     11  H8  UNL     1      -2.107 -12.938  -0.249  0.00  0.00    +0.175 HD
BRANCH  10  12
ATOM     12  C12 UNL     1      -2.325 -10.991  -1.143  0.00  0.00    +0.138 A 
ATOM     13  C13 UNL     1      -3.180 -10.093  -0.492  0.00  0.00    +0.045 A 
ATOM     14  C14 UNL     1      -3.825  -9.100  -1.234  0.00  0.00    +0.005 A 
ATOM     15  C15 UNL     1      -3.612  -9.011  -2.610  0.00  0.00    +0.020 A 
ATOM     16  C16 UNL     1      -2.754  -9.923  -3.227  0.00  0.00    +0.113 A 
ATOM     17  N4  UNL     1      -2.136 -10.883  -2.490  0.00  0.00    -0.239 NA
ENDBRANCH  10  12
ENDBRANCH   7  10
ENDBRANCH   4   7
BRANCH   1  18
ATOM     18  N2  UNL     1       1.178  -5.866   0.394  0.00  0.00    -0.340 N 
ATOM     19  H3  UNL     1       1.593  -5.456  -0.474  0.00  0.00    +0.146 HD
BRANCH  18  20
ATOM     20  C5  UNL     1       0.921  -4.985   1.536  0.00  0.00    +0.143 C 
BRANCH  20  26
ATOM     21  O1  UNL     1       3.186  -3.314   0.206  0.00  0.00    -0.268 OA
ATOM     22  C1  UNL     1       3.214  -3.658   1.416  0.00  0.00    +0.266 C 
ATOM     23  N1  UNL     1       4.257  -3.305   2.319  0.00  0.00    -0.176 NA
ATOM     24  C2  UNL     1       3.879  -3.845   3.434  0.00  0.00    +0.066 A 
ATOM     25  C3  UNL     1       2.669  -4.529   3.345  0.00  0.00    +0.024 A 
ATOM     26  C4  UNL     1       2.207  -4.456   2.101  0.00  0.00    +0.043 C 
ATOM     27  C17 UNL     1       2.142  -5.136   4.487  0.00  0.00    +0.048 A 
ATOM     28  S2  UNL     1       0.726  -6.011   4.720  0.00  0.00    -0.075 S 
ATOM     29  C18 UNL     1       1.048  -6.261   6.362  0.00  0.00    +0.157 A 
ATOM     30  N5  UNL     1       2.218  -5.689   6.740  0.00  0.00    -0.247 NA
ATOM     31  C19 UNL     1       2.825  -5.065   5.697  0.00  0.00    +0.079 A 
ATOM     32  C20 UNL     1       4.050  -4.382   5.793  0.00  0.00    +0.031 A 
ATOM     33  C21 UNL     1       4.587  -3.761   4.645  0.00  0.00    +0.028 A 
ENDBRANCH  20  26
ENDBRANCH  18  20
ENDBRANCH   1  18
TORSDOF 6
ENDMDL
MODEL 5
REMARK minimizedAffinity -6.41722345
REMARK minimizedRMSD -1
REMARK  Name = /home/tchapet/Post-Doc/ARTICLES-DOSSIERS-DES-ARTICLES-EN-REDACTION/NOUVELS-AXES-DE-RECHERCHE-A-REGARDER-URGEMMENT/ARTICLES-EN-REDACTIONS/ARTICLE_MVOTO/Paper2_Sensors_ActuatorsB/docking_rerun/ligands/1712.pdb
REMARK  6 active torsions:
REMARK  status: ('A' for Active; 'I' for Inactive)
REMARK    1  A    between atoms: C4_6  and  C5_7
REMARK    2  A    between atoms: C5_7  and  N2_8
REMARK    3  A    between atoms: N2_8  and  C6_9
REMARK    4  A    between atoms: C9_12  and  S1_15
REMARK    5  A    between atoms: S1_15  and  N3_18
REMARK    6  A    between atoms: N3_18  and  C12_19
REMARK                            x       y       z     vdW  Elec       q    Type
REMARK                         _______ _______ _______ _____ _____    ______ ____
ROOT
ATOM      1  C6  UNL     1     -18.941 -31.787   7.989  0.00  0.00    +0.027 A 
ATOM      2  C7  UNL     1     -18.922 -30.512   8.577  0.00  0.00    +0.025 A 
ATOM      3  C8  UNL     1     -19.495 -30.300   9.834  0.00  0.00    +0.030 A 
ATOM      4  C9  UNL     1     -20.101 -31.359  10.519  0.00  0.00    +0.109 A 
ATOM      5  C10 UNL     1     -20.122 -32.635   9.943  0.00  0.00    +0.030 A 
ATOM      6  C11 UNL     1     -19.548 -32.849   8.685  0.00  0.00    +0.025 A 
ENDROOT
BRANCH   4   7
ATOM      7  S1  UNL     1     -20.833 -31.080  12.096  0.00  0.00    +0.073 S 
ATOM      8  O2  UNL     1     -22.082 -31.908  12.210  0.00  0.00    -0.150 OA
ATOM      9  O3  UNL     1     -21.187 -29.629  12.265  0.00  0.00    -0.150 OA
BRANCH   7  10
ATOM     10  N3  UNL     1     -19.723 -31.536  13.347  0.00  0.00    -0.199 N 
ATOM     11  H8  UNL     1     -20.101 -32.035  14.184  0.00  0.00    +0.175 HD
BRANCH  10  12
ATOM     12  C12 UNL     1     -18.319 -31.272  13.247  0.00  0.00    +0.138 A 
ATOM     13  C13 UNL     1     -17.844 -29.955  13.315  0.00  0.00    +0.045 A 
ATOM     14  C14 UNL     1     -16.471 -29.716  13.224  0.00  0.00    +0.005 A 
ATOM     15  C15 UNL     1     -15.588 -30.785  13.066  0.00  0.00    +0.020 A 
ATOM     16  C16 UNL     1     -16.094 -32.084  13.001  0.00  0.00    +0.113 A 
ATOM     17  N4  UNL     1     -17.434 -32.297  13.091  0.00  0.00    -0.239 NA
ENDBRANCH  10  12
ENDBRANCH   7  10
ENDBRANCH   4   7
BRANCH   1  18
ATOM     18  N2  UNL     1     -18.340 -31.973   6.694  0.00  0.00    -0.340 N 
ATOM     19  H3  UNL     1     -17.298 -31.917   6.623  0.00  0.00    +0.146 HD
BRANCH  18  20
ATOM     20  C5  UNL     1     -19.114 -32.268   5.486  0.00  0.00    +0.143 C 
BRANCH  20  26
ATOM     21  O1  UNL     1     -17.041 -31.485   3.299  0.00  0.00    -0.268 OA
ATOM     22  C1  UNL     1     -18.083 -30.815   3.521  0.00  0.00    +0.266 C 
ATOM     23  N1  UNL     1     -18.451 -29.651   2.788  0.00  0.00    -0.176 NA
ATOM     24  C2  UNL     1     -19.575 -29.302   3.330  0.00  0.00    +0.066 A 
ATOM     25  C3  UNL     1     -19.984 -30.142   4.364  0.00  0.00    +0.024 A 
ATOM     26  C4  UNL     1     -19.084 -31.105   4.537  0.00  0.00    +0.043 C 
ATOM     27  C17 UNL     1     -21.193 -29.886   5.014  0.00  0.00    +0.048 A 
ATOM     28  S2  UNL     1     -21.967 -30.695   6.267  0.00  0.00    -0.075 S 
ATOM     29  C18 UNL     1     -23.271 -29.616   6.274  0.00  0.00    +0.157 A 
ATOM     30  N5  UNL     1     -23.129 -28.647   5.336  0.00  0.00    -0.247 NA
ATOM     31  C19 UNL     1     -21.975 -28.798   4.637  0.00  0.00    +0.079 A 
ATOM     32  C20 UNL     1     -21.565 -27.943   3.599  0.00  0.00    +0.031 A 
ATOM     33  C21 UNL     1     -20.348 -28.198   2.934  0.00  0.00    +0.028 A 
ENDBRANCH  20  26
ENDBRANCH  18  20
ENDBRANCH   1  18
TORSDOF 6
ENDMDL
MODEL 6
REMARK minimizedAffinity -6.35219145
REMARK minimizedRMSD -1
REMARK  Name = /home/tchapet/Post-Doc/ARTICLES-DOSSIERS-DES-ARTICLES-EN-REDACTION/NOUVELS-AXES-DE-RECHERCHE-A-REGARDER-URGEMMENT/ARTICLES-EN-REDACTIONS/ARTICLE_MVOTO/Paper2_Sensors_ActuatorsB/docking_rerun/ligands/1712.pdb
REMARK  6 active torsions:
REMARK  status: ('A' for Active; 'I' for Inactive)
REMARK    1  A    between atoms: C4_6  and  C5_7
REMARK    2  A    between atoms: C5_7  and  N2_8
REMARK    3  A    between atoms: N2_8  and  C6_9
REMARK    4  A    between atoms: C9_12  and  S1_15
REMARK    5  A    between atoms: S1_15  and  N3_18
REMARK    6  A    between atoms: N3_18  and  C12_19
REMARK                            x       y       z     vdW  Elec       q    Type
REMARK                         _______ _______ _______ _____ _____    ______ ____
ROOT
ATOM      1  C6  UNL     1     -18.331 -33.311   4.014  0.00  0.00    +0.027 A 
ATOM      2  C7  UNL     1     -17.119 -33.313   4.722  0.00  0.00    +0.025 A 
ATOM      3  C8  UNL     1     -17.113 -33.312   6.120  0.00  0.00    +0.030 A 
ATOM      4  C9  UNL     1     -18.320 -33.301   6.830  0.00  0.00    +0.109 A 
ATOM      5  C10 UNL     1     -19.533 -33.303   6.132  0.00  0.00    +0.030 A 
ATOM      6  C11 UNL     1     -19.541 -33.305   4.733  0.00  0.00    +0.025 A 
ENDROOT
BRANCH   4   7
ATOM      7  S1  UNL     1     -18.302 -33.285   8.591  0.00  0.00    +0.073 S 
ATOM      8  O2  UNL     1     -17.204 -34.189   9.078  0.00  0.00    -0.150 OA
ATOM      9  O3  UNL     1     -19.616 -33.769   9.136  0.00  0.00    -0.150 OA
BRANCH   7  10
ATOM     10  N3  UNL     1     -18.016 -31.673   9.160  0.00  0.00    -0.199 N 
ATOM     11  H8  UNL     1     -17.142 -31.190   8.854  0.00  0.00    +0.175 HD
BRANCH  10  12
ATOM     12  C12 UNL     1     -18.950 -30.992  10.006  0.00  0.00    +0.138 A 
ATOM     13  C13 UNL     1     -20.082 -30.378   9.454  0.00  0.00    +0.045 A 
ATOM     14  C14 UNL     1     -20.987 -29.726  10.294  0.00  0.00    +0.005 A 
ATOM     15  C15 UNL     1     -20.757 -29.691  11.670  0.00  0.00    +0.020 A 
ATOM     16  C16 UNL     1     -19.618 -30.312  12.187  0.00  0.00    +0.113 A 
ATOM     17  N4  UNL     1     -18.749 -30.942  11.354  0.00  0.00    -0.239 NA
ENDBRANCH  10  12
ENDBRANCH   7  10
ENDBRANCH   4   7
BRANCH   1  18
ATOM     18  N2  UNL     1     -18.304 -33.315   2.574  0.00  0.00    -0.340 N 
ATOM     19  H3  UNL     1     -17.675 -34.001   2.096  0.00  0.00    +0.146 HD
BRANCH  18  20
ATOM     20  C5  UNL     1     -19.135 -32.431   1.754  0.00  0.00    +0.143 C 
BRANCH  20  26
ATOM     21  O1  UNL     1     -16.696 -30.538   2.156  0.00  0.00    -0.268 OA
ATOM     22  C1  UNL     1     -17.880 -30.185   2.397  0.00  0.00    +0.266 C 
ATOM     23  N1  UNL     1     -18.246 -28.885   2.848  0.00  0.00    -0.176 NA
ATOM     24  C2  UNL     1     -19.535 -28.958   2.950  0.00  0.00    +0.066 A 
ATOM     25  C3  UNL     1     -20.056 -30.202   2.602  0.00  0.00    +0.024 A 
ATOM     26  C4  UNL     1     -19.065 -31.018   2.256  0.00  0.00    +0.043 C 
ATOM     27  C17 UNL     1     -21.437 -30.402   2.649  0.00  0.00    +0.048 A 
ATOM     28  S2  UNL     1     -22.372 -31.751   2.288  0.00  0.00    -0.075 S 
ATOM     29  C18 UNL     1     -23.819 -30.955   2.657  0.00  0.00    +0.157 A 
ATOM     30  N5  UNL     1     -23.605 -29.675   3.051  0.00  0.00    -0.247 NA
ATOM     31  C19 UNL     1     -22.282 -29.369   3.046  0.00  0.00    +0.079 A 
ATOM     32  C20 UNL     1     -21.762 -28.113   3.405  0.00  0.00    +0.031 A 
ATOM     33  C21 UNL     1     -20.368 -27.902   3.356  0.00  0.00    +0.028 A 
ENDBRANCH  20  26
ENDBRANCH  18  20
ENDBRANCH   1  18
TORSDOF 6
ENDMDL
MODEL 7
REMARK minimizedAffinity -6.35050869
REMARK minimizedRMSD -1
REMARK  Name = /home/tchapet/Post-Doc/ARTICLES-DOSSIERS-DES-ARTICLES-EN-REDACTION/NOUVELS-AXES-DE-RECHERCHE-A-REGARDER-URGEMMENT/ARTICLES-EN-REDACTIONS/ARTICLE_MVOTO/Paper2_Sensors_ActuatorsB/docking_rerun/ligands/1712.pdb
REMARK  6 active torsions:
REMARK  status: ('A' for Active; 'I' for Inactive)
REMARK    1  A    between atoms: C4_6  and  C5_7
REMARK    2  A    between atoms: C5_7  and  N2_8
REMARK    3  A    between atoms: N2_8  and  C6_9
REMARK    4  A    between atoms: C9_12  and  S1_15
REMARK    5  A    between atoms: S1_15  and  N3_18
REMARK    6  A    between atoms: N3_18  and  C12_19
REMARK                            x       y       z     vdW  Elec       q    Type
REMARK                         _______ _______ _______ _____ _____    ______ ____
ROOT
ATOM      1  C6  UNL     1     -21.580 -31.229   6.142  0.00  0.00    +0.027 A 
ATOM      2  C7  UNL     1     -21.162 -30.386   7.185  0.00  0.00    +0.025 A 
ATOM      3  C8  UNL     1     -20.139 -30.782   8.051  0.00  0.00    +0.030 A 
ATOM      4  C9  UNL     1     -19.523 -32.028   7.891  0.00  0.00    +0.109 A 
ATOM      5  C10 UNL     1     -19.930 -32.873   6.852  0.00  0.00    +0.030 A 
ATOM      6  C11 UNL     1     -20.953 -32.479   5.984  0.00  0.00    +0.025 A 
ENDROOT
BRANCH   4   7
ATOM      7  S1  UNL     1     -18.244 -32.523   8.996  0.00  0.00    +0.073 S 
ATOM      8  O2  UNL     1     -17.139 -33.169   8.208  0.00  0.00    -0.150 OA
ATOM      9  O3  UNL     1     -18.769 -33.506  10.004  0.00  0.00    -0.150 OA
BRANCH   7  10
ATOM     10  N3  UNL     1     -17.622 -31.138   9.832  0.00  0.00    -0.199 N 
ATOM     11  H8  UNL     1     -17.013 -30.474   9.302  0.00  0.00    +0.175 HD
BRANCH  10  12
ATOM     12  C12 UNL     1     -17.941 -30.875  11.203  0.00  0.00    +0.138 A 
ATOM     13  C13 UNL     1     -19.266 -30.624  11.582  0.00  0.00    +0.045 A 
ATOM     14  C14 UNL     1     -19.561 -30.378  12.925  0.00  0.00    +0.005 A 
ATOM     15  C15 UNL     1     -18.537 -30.384  13.874  0.00  0.00    +0.020 A 
ATOM     16  C16 UNL     1     -17.228 -30.636  13.462  0.00  0.00    +0.113 A 
ATOM     17  N4  UNL     1     -16.960 -30.873  12.151  0.00  0.00    -0.239 NA
ENDBRANCH  10  12
ENDBRANCH   7  10
ENDBRANCH   4   7
BRANCH   1  18
ATOM     18  N2  UNL     1     -22.635 -30.792   5.265  0.00  0.00    -0.340 N 
ATOM     19  H3  UNL     1     -23.514 -30.425   5.698  0.00  0.00    +0.146 HD
BRANCH  18  20
ATOM     20  C5  UNL     1     -22.522 -30.807   3.805  0.00  0.00    +0.143 C 
BRANCH  20  26
ATOM     21  O1  UNL     1     -22.117 -27.795   4.480  0.00  0.00    -0.268 OA
ATOM     22  C1  UNL     1     -21.343 -28.433   3.721  0.00  0.00    +0.266 C 
ATOM     23  N1  UNL     1     -20.186 -27.870   3.111  0.00  0.00    -0.176 NA
ATOM     24  C2  UNL     1     -19.691 -28.863   2.442  0.00  0.00    +0.066 A 
ATOM     25  C3  UNL     1     -20.425 -30.041   2.560  0.00  0.00    +0.024 A 
ATOM     26  C4  UNL     1     -21.479 -29.832   3.341  0.00  0.00    +0.043 C 
ATOM     27  C17 UNL     1     -19.981 -31.191   1.904  0.00  0.00    +0.048 A 
ATOM     28  S2  UNL     1     -20.614 -32.747   1.850  0.00  0.00    -0.075 S 
ATOM     29  C18 UNL     1     -19.376 -33.309   0.843  0.00  0.00    +0.157 A 
ATOM     30  N5  UNL     1     -18.484 -32.332   0.545  0.00  0.00    -0.247 NA
ATOM     31  C19 UNL     1     -18.821 -31.156   1.135  0.00  0.00    +0.079 A 
ATOM     32  C20 UNL     1     -18.079 -29.969   1.007  0.00  0.00    +0.031 A 
ATOM     33  C21 UNL     1     -18.518 -28.804   1.670  0.00  0.00    +0.028 A 
ENDBRANCH  20  26
ENDBRANCH  18  20
ENDBRANCH   1  18
TORSDOF 6
ENDMDL
MODEL 8
REMARK minimizedAffinity -6.30909157
REMARK minimizedRMSD -1
REMARK  Name = /home/tchapet/Post-Doc/ARTICLES-DOSSIERS-DES-ARTICLES-EN-REDACTION/NOUVELS-AXES-DE-RECHERCHE-A-REGARDER-URGEMMENT/ARTICLES-EN-REDACTIONS/ARTICLE_MVOTO/Paper2_Sensors_ActuatorsB/docking_rerun/ligands/1712.pdb
REMARK  6 active torsions:
REMARK  status: ('A' for Active; 'I' for Inactive)
REMARK    1  A    between atoms: C4_6  and  C5_7
REMARK    2  A    between atoms: C5_7  and  N2_8
REMARK    3  A    between atoms: N2_8  and  C6_9
REMARK    4  A    between atoms: C9_12  and  S1_15
REMARK    5  A    between atoms: S1_15  and  N3_18
REMARK    6  A    between atoms: N3_18  and  C12_19
REMARK                            x       y       z     vdW  Elec       q    Type
REMARK                         _______ _______ _______ _____ _____    ______ ____
ROOT
ATOM      1  C6  UNL     1      13.125  24.509  22.062  0.00  0.00    +0.027 A 
ATOM      2  C7  UNL     1      13.510  23.216  21.675  0.00  0.00    +0.025 A 
ATOM      3  C8  UNL     1      14.763  22.711  22.033  0.00  0.00    +0.030 A 
ATOM      4  C9  UNL     1      15.652  23.495  22.778  0.00  0.00    +0.109 A 
ATOM      5  C10 UNL     1      15.275  24.785  23.171  0.00  0.00    +0.030 A 
ATOM      6  C11 UNL     1      14.021  25.291  22.814  0.00  0.00    +0.025 A 
ENDROOT
BRANCH   4   7
ATOM      7  S1  UNL     1      17.235  22.856  23.212  0.00  0.00    +0.073 S 
ATOM      8  O2  UNL     1      18.021  23.929  23.911  0.00  0.00    -0.150 OA
ATOM      9  O3  UNL     1      17.982  22.418  21.985  0.00  0.00    -0.150 OA
BRANCH   7  10
ATOM     10  N3  UNL     1      17.048  21.497  24.271  0.00  0.00    -0.199 N 
ATOM     11  H8  UNL     1      16.987  21.676  25.299  0.00  0.00    +0.175 HD
BRANCH  10  12
ATOM     12  C12 UNL     1      16.950  20.157  23.774  0.00  0.00    +0.138 A 
ATOM     13  C13 UNL     1      15.708  19.640  23.382  0.00  0.00    +0.045 A 
ATOM     14  C14 UNL     1      15.633  18.334  22.891  0.00  0.00    +0.005 A 
ATOM     15  C15 UNL     1      16.789  17.560  22.795  0.00  0.00    +0.020 A 
ATOM     16  C16 UNL     1      18.010  18.105  23.195  0.00  0.00    +0.113 A 
ATOM     17  N4  UNL     1      18.065  19.378  23.671  0.00  0.00    -0.239 NA
ENDBRANCH  10  12
ENDBRANCH   7  10
ENDBRANCH   4   7
BRANCH   1  18
ATOM     18  N2  UNL     1      11.826  24.999  21.679  0.00  0.00    -0.340 N 
ATOM     19  H3  UNL     1      11.079  24.299  21.466  0.00  0.00    +0.146 HD
BRANCH  18  20
ATOM     20  C5  UNL     1      11.496  26.425  21.607  0.00  0.00    +0.143 C 
BRANCH  20  26
ATOM     21  O1  UNL     1       9.444  25.072  23.517  0.00  0.00    -0.268 OA
ATOM     22  C1  UNL     1       9.957  26.197  23.754  0.00  0.00    +0.266 C 
ATOM     23  N1  UNL     1       9.688  26.963  24.923  0.00  0.00    -0.176 NA
ATOM     24  C2  UNL     1      10.423  28.018  24.763  0.00  0.00    +0.066 A 
ATOM     25  C3  UNL     1      11.160  28.013  23.581  0.00  0.00    +0.024 A 
ATOM     26  C4  UNL     1      10.903  26.901  22.900  0.00  0.00    +0.043 C 
ATOM     27  C17 UNL     1      12.011  29.085  23.303  0.00  0.00    +0.048 A 
ATOM     28  S2  UNL     1      13.029  29.379  21.998  0.00  0.00    -0.075 S 
ATOM     29  C18 UNL     1      13.556  30.857  22.630  0.00  0.00    +0.157 A 
ATOM     30  N5  UNL     1      12.971  31.134  23.822  0.00  0.00    -0.247 NA
ATOM     31  C19 UNL     1      12.113  30.149  24.194  0.00  0.00    +0.079 A 
ATOM     32  C20 UNL     1      11.367  30.163  25.386  0.00  0.00    +0.031 A 
ATOM     33  C21 UNL     1      10.509  29.082  25.677  0.00  0.00    +0.028 A 
ENDBRANCH  20  26
ENDBRANCH  18  20
ENDBRANCH   1  18
TORSDOF 6
ENDMDL
MODEL 9
REMARK minimizedAffinity -6.25049734
REMARK minimizedRMSD -1
REMARK  Name = /home/tchapet/Post-Doc/ARTICLES-DOSSIERS-DES-ARTICLES-EN-REDACTION/NOUVELS-AXES-DE-RECHERCHE-A-REGARDER-URGEMMENT/ARTICLES-EN-REDACTIONS/ARTICLE_MVOTO/Paper2_Sensors_ActuatorsB/docking_rerun/ligands/1712.pdb
REMARK  6 active torsions:
REMARK  status: ('A' for Active; 'I' for Inactive)
REMARK    1  A    between atoms: C4_6  and  C5_7
REMARK    2  A    between atoms: C5_7  and  N2_8
REMARK    3  A    between atoms: N2_8  and  C6_9
REMARK    4  A    between atoms: C9_12  and  S1_15
REMARK    5  A    between atoms: S1_15  and  N3_18
REMARK    6  A    between atoms: N3_18  and  C12_19
REMARK                            x       y       z     vdW  Elec       q    Type
REMARK                         _______ _______ _______ _____ _____    ______ ____
ROOT
ATOM      1  C6  UNL     1       1.010  -8.186   2.162  0.00  0.00    +0.027 A 
ATOM      2  C7  UNL     1      -0.245  -8.747   1.878  0.00  0.00    +0.025 A 
ATOM      3  C8  UNL     1      -0.482 -10.106   2.100  0.00  0.00    +0.030 A 
ATOM      4  C9  UNL     1       0.534 -10.926   2.604  0.00  0.00    +0.109 A 
ATOM      5  C10 UNL     1       1.787 -10.374   2.894  0.00  0.00    +0.030 A 
ATOM      6  C11 UNL     1       2.027  -9.014   2.673  0.00  0.00    +0.025 A 
ENDROOT
BRANCH   4   7
ATOM      7  S1  UNL     1       0.230 -12.640   2.867  0.00  0.00    +0.073 S 
ATOM      8  O2  UNL     1       1.373 -13.226   3.646  0.00  0.00    -0.150 OA
ATOM      9  O3  UNL     1       0.107 -13.362   1.555  0.00  0.00    -0.150 OA
BRANCH   7  10
ATOM     10  N3  UNL     1      -1.241 -12.845   3.761  0.00  0.00    -0.199 N 
ATOM     11  H8  UNL     1      -2.132 -12.955   3.226  0.00  0.00    +0.175 HD
BRANCH  10  12
ATOM     12  C12 UNL     1      -1.257 -12.890   5.192  0.00  0.00    +0.138 A 
ATOM     13  C13 UNL     1      -1.130 -11.709   5.935  0.00  0.00    +0.045 A 
ATOM     14  C14 UNL     1      -1.156 -11.770   7.331  0.00  0.00    +0.005 A 
ATOM     15  C15 UNL     1      -1.307 -13.001   7.970  0.00  0.00    +0.020 A 
ATOM     16  C16 UNL     1      -1.431 -14.159   7.199  0.00  0.00    +0.113 A 
ATOM     17  N4  UNL     1      -1.403 -14.080   5.842  0.00  0.00    -0.239 NA
ENDBRANCH  10  12
ENDBRANCH   7  10
ENDBRANCH   4   7
BRANCH   1  18
ATOM     18  N2  UNL     1       1.222  -6.782   1.925  0.00  0.00    -0.340 N 
ATOM     19  H3  UNL     1       1.886  -6.506   1.165  0.00  0.00    +0.146 HD
BRANCH  18  20
ATOM     20  C5  UNL     1       0.531  -5.729   2.674  0.00  0.00    +0.143 C 
BRANCH  20  26
ATOM     21  O1  UNL     1      -0.862  -7.119   5.086  0.00  0.00    -0.268 OA
ATOM     22  C1  UNL     1       0.210  -6.470   5.200  0.00  0.00    +0.266 C 
ATOM     23  N1  UNL     1       0.922  -6.318   6.424  0.00  0.00    -0.176 NA
ATOM     24  C2  UNL     1       1.948  -5.604   6.084  0.00  0.00    +0.066 A 
ATOM     25  C3  UNL     1       1.975  -5.269   4.732  0.00  0.00    +0.024 A 
ATOM     26  C4  UNL     1       0.906  -5.775   4.127  0.00  0.00    +0.043 C 
ATOM     27  C17 UNL     1       3.044  -4.520   4.236  0.00  0.00    +0.048 A 
ATOM     28  S2  UNL     1       3.382  -3.968   2.685  0.00  0.00    -0.075 S 
ATOM     29  C18 UNL     1       4.821  -3.223   3.169  0.00  0.00    +0.157 A 
ATOM     30  N5  UNL     1       5.053  -3.387   4.495  0.00  0.00    -0.247 NA
ATOM     31  C19 UNL     1       4.066  -4.107   5.087  0.00  0.00    +0.079 A 
ATOM     32  C20 UNL     1       4.041  -4.436   6.453  0.00  0.00    +0.031 A 
ATOM     33  C21 UNL     1       2.967  -5.197   6.961  0.00  0.00    +0.028 A 
ENDBRANCH  20  26
ENDBRANCH  18  20
ENDBRANCH   1  18
TORSDOF 6
ENDMDL
