MODEL 1
REMARK minimizedAffinity -8.22224903
REMARK minimizedRMSD -1
REMARK  Name = /home/tchapet/Post-Doc/ARTICLES-DOSSIERS-DES-ARTICLES-EN-REDACTION/NOUVELS-AXES-DE-RECHERCHE-A-REGARDER-URGEMMENT/ARTICLES-EN-REDACTIONS/ARTICLE_MVOTO/Paper2_Sensors_ActuatorsB/docking_rerun/ligands/1712.pdb
REMARK  6 active torsions:
REMARK  status: ('A' for Active; 'I' for Inactive)
REMARK    1  A    between atoms: C4_6  and  C5_7
REMARK    2  A    between atoms: C5_7  and  N2_8
REMARK    3  A    between atoms: N2_8  and  C6_9
REMARK    4  A    between atoms: C9_12  and  S1_15
REMARK    5  A    between atoms: S1_15  and  N3_18
REMARK    6  A    between atoms: N3_18  and  C12_19
REMARK                            x       y       z     vdW  Elec       q    Type
REMARK                         _______ _______ _______ _____ _____    ______ ____
ROOT
ATOM      1  C6  UNL     1      15.029  -5.638   3.746  0.00  0.00    +0.027 A 
ATOM      2  C7  UNL     1      13.899  -4.959   4.228  0.00  0.00    +0.025 A 
ATOM      3  C8  UNL     1      13.885  -4.432   5.523  0.00  0.00    +0.030 A 
ATOM      4  C9  UNL     1      14.999  -4.582   6.356  0.00  0.00    +0.109 A 
ATOM      5  C10 UNL     1      16.132  -5.255   5.883  0.00  0.00    +0.030 A 
ATOM      6  C11 UNL     1      16.148  -5.782   4.588  0.00  0.00    +0.025 A 
ENDROOT
BRANCH   4   7
ATOM      7  S1  UNL     1      14.967  -3.926   7.991  0.00  0.00    +0.073 S 
ATOM      8  O2  UNL     1      16.299  -4.171   8.643  0.00  0.00    -0.150 OA
ATOM      9  O3  UNL     1      13.892  -4.589   8.804  0.00  0.00    -0.150 OA
BRANCH   7  10
ATOM     10  N3  UNL     1      14.659  -2.222   7.933  0.00  0.00    -0.199 N 
ATOM     11  H8  UNL     1      14.861  -1.714   7.043  0.00  0.00    +0.175 HD
BRANCH  10  12
ATOM     12  C12 UNL     1      14.117  -1.512   9.054  0.00  0.00    +0.138 A 
ATOM     13  C13 UNL     1      14.634  -0.260   9.410  0.00  0.00    +0.045 A 
ATOM     14  C14 UNL     1      14.089   0.422  10.501  0.00  0.00    +0.005 A 
ATOM     15  C15 UNL     1      13.039  -0.147  11.223  0.00  0.00    +0.020 A 
ATOM     16  C16 UNL     1      12.548  -1.397  10.841  0.00  0.00    +0.113 A 
ATOM     17  N4  UNL     1      13.092  -2.046   9.777  0.00  0.00    -0.239 NA
ENDBRANCH  10  12
ENDBRANCH   7  10
ENDBRANCH   4   7
BRANCH   1  18
ATOM     18  N2  UNL     1      15.013  -6.167   2.408  0.00  0.00    -0.340 N 
ATOM     19  H3  UNL     1      14.943  -7.205   2.289  0.00  0.00    +0.146 HD
BRANCH  18  20
ATOM     20  C5  UNL     1      15.057  -5.323   1.211  0.00  0.00    +0.143 C 
BRANCH  20  26
ATOM     21  O1  UNL     1      17.961  -6.416   0.958  0.00  0.00    -0.268 OA
ATOM     22  C1  UNL     1      17.695  -5.186   0.978  0.00  0.00    +0.266 C 
ATOM     23  N1  UNL     1      18.674  -4.159   0.860  0.00  0.00    -0.176 NA
ATOM     24  C2  UNL     1      17.971  -3.072   0.917  0.00  0.00    +0.066 A 
ATOM     25  C3  UNL     1      16.604  -3.294   1.062  0.00  0.00    +0.024 A 
ATOM     26  C4  UNL     1      16.369  -4.601   1.117  0.00  0.00    +0.043 C 
ATOM     27  C17 UNL     1      15.736  -2.201   1.112  0.00  0.00    +0.048 A 
ATOM     28  S2  UNL     1      14.064  -2.124   1.266  0.00  0.00    -0.075 S 
ATOM     29  C18 UNL     1      14.051  -0.433   1.216  0.00  0.00    +0.157 A 
ATOM     30  N5  UNL     1      15.300   0.078   1.083  0.00  0.00    -0.247 NA
ATOM     31  C19 UNL     1      16.235  -0.905   1.025  0.00  0.00    +0.079 A 
ATOM     32  C20 UNL     1      17.615  -0.673   0.885  0.00  0.00    +0.031 A 
ATOM     33  C21 UNL     1      18.498  -1.772   0.828  0.00  0.00    +0.028 A 
ENDBRANCH  20  26
ENDBRANCH  18  20
ENDBRANCH   1  18
TORSDOF 6
ENDMDL
MODEL 2
REMARK minimizedAffinity -7.93408537
REMARK minimizedRMSD -1
REMARK  Name = /home/tchapet/Post-Doc/ARTICLES-DOSSIERS-DES-ARTICLES-EN-REDACTION/NOUVELS-AXES-DE-RECHERCHE-A-REGARDER-URGEMMENT/ARTICLES-EN-REDACTIONS/ARTICLE_MVOTO/Paper2_Sensors_ActuatorsB/docking_rerun/ligands/1712.pdb
REMARK  6 active torsions:
REMARK  status: ('A' for Active; 'I' for Inactive)
REMARK    1  A    between atoms: C4_6  and  C5_7
REMARK    2  A    between atoms: C5_7  and  N2_8
REMARK    3  A    between atoms: N2_8  and  C6_9
REMARK    4  A    between atoms: C9_12  and  S1_15
REMARK    5  A    between atoms: S1_15  and  N3_18
REMARK    6  A    between atoms: N3_18  and  C12_19
REMARK                            x       y       z     vdW  Elec       q    Type
REMARK                         _______ _______ _______ _____ _____    ______ ____
ROOT
ATOM      1  C6  UNL     1      15.465  -5.485   3.704  0.00  0.00    +0.027 A 
ATOM      2  C7  UNL     1      14.205  -5.085   4.178  0.00  0.00    +0.025 A 
ATOM      3  C8  UNL     1      14.057  -4.603   5.482  0.00  0.00    +0.030 A 
ATOM      4  C9  UNL     1      15.165  -4.519   6.332  0.00  0.00    +0.109 A 
ATOM      5  C10 UNL     1      16.426  -4.912   5.867  0.00  0.00    +0.030 A 
ATOM      6  C11 UNL     1      16.576  -5.394   4.563  0.00  0.00    +0.025 A 
ENDROOT
BRANCH   4   7
ATOM      7  S1  UNL     1      14.966  -3.923   7.977  0.00  0.00    +0.073 S 
ATOM      8  O2  UNL     1      16.225  -4.193   8.752  0.00  0.00    -0.150 OA
ATOM      9  O3  UNL     1      13.815  -4.613   8.653  0.00  0.00    -0.150 OA
BRANCH   7  10
ATOM     10  N3  UNL     1      14.661  -2.217   7.951  0.00  0.00    -0.199 N 
ATOM     11  H8  UNL     1      14.866  -1.693   7.070  0.00  0.00    +0.175 HD
BRANCH  10  12
ATOM     12  C12 UNL     1      14.118  -1.527   9.083  0.00  0.00    +0.138 A 
ATOM     13  C13 UNL     1      14.610  -0.265   9.440  0.00  0.00    +0.045 A 
ATOM     14  C14 UNL     1      14.063   0.397  10.542  0.00  0.00    +0.005 A 
ATOM     15  C15 UNL     1      13.036  -0.201  11.274  0.00  0.00    +0.020 A 
ATOM     16  C16 UNL     1      12.570  -1.459  10.890  0.00  0.00    +0.113 A 
ATOM     17  N4  UNL     1      13.114  -2.089   9.815  0.00  0.00    -0.239 NA
ENDBRANCH  10  12
ENDBRANCH   7  10
ENDBRANCH   4   7
BRANCH   1  18
ATOM     18  N2  UNL     1      15.585  -5.975   2.356  0.00  0.00    -0.340 N 
ATOM     19  H3  UNL     1      15.931  -6.953   2.217  0.00  0.00    +0.146 HD
BRANCH  18  20
ATOM     20  C5  UNL     1      15.218  -5.183   1.179  0.00  0.00    +0.143 C 
BRANCH  20  26
ATOM     21  O1  UNL     1      13.970  -2.464   2.040  0.00  0.00    -0.268 OA
ATOM     22  C1  UNL     1      15.172  -2.581   1.688  0.00  0.00    +0.266 C 
ATOM     23  N1  UNL     1      16.104  -1.504   1.670  0.00  0.00    -0.176 NA
ATOM     24  C2  UNL     1      17.199  -2.066   1.267  0.00  0.00    +0.066 A 
ATOM     25  C3  UNL     1      17.071  -3.430   1.016  0.00  0.00    +0.024 A 
ATOM     26  C4  UNL     1      15.819  -3.810   1.252  0.00  0.00    +0.043 C 
ATOM     27  C17 UNL     1      18.188  -4.156   0.597  0.00  0.00    +0.048 A 
ATOM     28  S2  UNL     1      18.373  -5.785   0.227  0.00  0.00    -0.075 S 
ATOM     29  C18 UNL     1      20.015  -5.604  -0.138  0.00  0.00    +0.157 A 
ATOM     30  N5  UNL     1      20.429  -4.322   0.017  0.00  0.00    -0.247 NA
ATOM     31  C19 UNL     1      19.413  -3.518   0.425  0.00  0.00    +0.079 A 
ATOM     32  C20 UNL     1      19.548  -2.141   0.670  0.00  0.00    +0.031 A 
ATOM     33  C21 UNL     1      18.426  -1.402   1.099  0.00  0.00    +0.028 A 
ENDBRANCH  20  26
ENDBRANCH  18  20
ENDBRANCH   1  18
TORSDOF 6
ENDMDL
MODEL 3
REMARK minimizedAffinity -7.44800568
REMARK minimizedRMSD -1
REMARK  Name = /home/tchapet/Post-Doc/ARTICLES-DOSSIERS-DES-ARTICLES-EN-REDACTION/NOUVELS-AXES-DE-RECHERCHE-A-REGARDER-URGEMMENT/ARTICLES-EN-REDACTIONS/ARTICLE_MVOTO/Paper2_Sensors_ActuatorsB/docking_rerun/ligands/1712.pdb
REMARK  6 active torsions:
REMARK  status: ('A' for Active; 'I' for Inactive)
REMARK    1  A    between atoms: C4_6  and  C5_7
REMARK    2  A    between atoms: C5_7  and  N2_8
REMARK    3  A    between atoms: N2_8  and  C6_9
REMARK    4  A    between atoms: C9_12  and  S1_15
REMARK    5  A    between atoms: S1_15  and  N3_18
REMARK    6  A    between atoms: N3_18  and  C12_19
REMARK                            x       y       z     vdW  Elec       q    Type
REMARK                         _______ _______ _______ _____ _____    ______ ____
ROOT
ATOM      1  C6  UNL     1      15.856  -5.742   3.808  0.00  0.00    +0.027 A 
ATOM      2  C7  UNL     1      14.572  -5.260   4.106  0.00  0.00    +0.025 A 
ATOM      3  C8  UNL     1      14.287  -4.728   5.367  0.00  0.00    +0.030 A 
ATOM      4  C9  UNL     1      15.281  -4.677   6.351  0.00  0.00    +0.109 A 
ATOM      5  C10 UNL     1      16.566  -5.152   6.061  0.00  0.00    +0.030 A 
ATOM      6  C11 UNL     1      16.853  -5.683   4.800  0.00  0.00    +0.025 A 
ENDROOT
BRANCH   4   7
ATOM      7  S1  UNL     1      14.910  -4.018   7.941  0.00  0.00    +0.073 S 
ATOM      8  O2  UNL     1      16.135  -4.108   8.807  0.00  0.00    -0.150 OA
ATOM      9  O3  UNL     1      13.794  -4.791   8.585  0.00  0.00    -0.150 OA
BRANCH   7  10
ATOM     10  N3  UNL     1      14.431  -2.359   7.792  0.00  0.00    -0.199 N 
ATOM     11  H8  UNL     1      14.434  -1.928   6.840  0.00  0.00    +0.175 HD
BRANCH  10  12
ATOM     12  C12 UNL     1      14.014  -1.586   8.924  0.00  0.00    +0.138 A 
ATOM     13  C13 UNL     1      14.609  -0.345   9.186  0.00  0.00    +0.045 A 
ATOM     14  C14 UNL     1      14.184   0.399  10.290  0.00  0.00    +0.005 A 
ATOM     15  C15 UNL     1      13.177  -0.098  11.118  0.00  0.00    +0.020 A 
ATOM     16  C16 UNL     1      12.606  -1.339  10.828  0.00  0.00    +0.113 A 
ATOM     17  N4  UNL     1      13.032  -2.049   9.750  0.00  0.00    -0.239 NA
ENDBRANCH  10  12
ENDBRANCH   7  10
ENDBRANCH   4   7
BRANCH   1  18
ATOM     18  N2  UNL     1      16.118  -6.281   2.499  0.00  0.00    -0.340 N 
ATOM     19  H3  UNL     1      16.874  -6.998   2.405  0.00  0.00    +0.146 HD
BRANCH  18  20
ATOM     20  C5  UNL     1      15.358  -5.898   1.307  0.00  0.00    +0.143 C 
BRANCH  20  26
ATOM     21  O1  UNL     1      16.526  -3.056   1.812  0.00  0.00    -0.268 OA
ATOM     22  C1  UNL     1      16.705  -3.686   0.737  0.00  0.00    +0.266 C 
ATOM     23  N1  UNL     1      17.479  -3.194  -0.352  0.00  0.00    -0.176 NA
ATOM     24  C2  UNL     1      17.408  -4.152  -1.222  0.00  0.00    +0.066 A 
ATOM     25  C3  UNL     1      16.650  -5.241  -0.798  0.00  0.00    +0.024 A 
ATOM     26  C4  UNL     1      16.174  -5.004   0.420  0.00  0.00    +0.043 C 
ATOM     27  C17 UNL     1      16.517  -6.349  -1.637  0.00  0.00    +0.048 A 
ATOM     28  S2  UNL     1      15.698  -7.802  -1.428  0.00  0.00    -0.075 S 
ATOM     29  C18 UNL     1      16.163  -8.382  -2.948  0.00  0.00    +0.157 A 
ATOM     30  N5  UNL     1      16.933  -7.488  -3.616  0.00  0.00    -0.247 NA
ATOM     31  C19 UNL     1      17.129  -6.359  -2.887  0.00  0.00    +0.079 A 
ATOM     32  C20 UNL     1      17.890  -5.261  -3.324  0.00  0.00    +0.031 A 
ATOM     33  C21 UNL     1      18.035  -4.140  -2.480  0.00  0.00    +0.028 A 
ENDBRANCH  20  26
ENDBRANCH  18  20
ENDBRANCH   1  18
TORSDOF 6
ENDMDL
MODEL 4
REMARK minimizedAffinity -6.84097147
REMARK minimizedRMSD -1
REMARK  Name = /home/tchapet/Post-Doc/ARTICLES-DOSSIERS-DES-ARTICLES-EN-REDACTION/NOUVELS-AXES-DE-RECHERCHE-A-REGARDER-URGEMMENT/ARTICLES-EN-REDACTIONS/ARTICLE_MVOTO/Paper2_Sensors_ActuatorsB/docking_rerun/ligands/1712.pdb
REMARK  6 active torsions:
REMARK  status: ('A' for Active; 'I' for Inactive)
REMARK    1  A    between atoms: C4_6  and  C5_7
REMARK    2  A    between atoms: C5_7  and  N2_8
REMARK    3  A    between atoms: N2_8  and  C6_9
REMARK    4  A    between atoms: C9_12  and  S1_15
REMARK    5  A    between atoms: S1_15  and  N3_18
REMARK    6  A    between atoms: N3_18  and  C12_19
REMARK                            x       y       z     vdW  Elec       q    Type
REMARK                         _______ _______ _______ _____ _____    ______ ____
ROOT
ATOM      1  C6  UNL     1       0.282 -15.080  21.968  0.00  0.00    +0.027 A 
ATOM      2  C7  UNL     1      -0.954 -14.653  21.457  0.00  0.00    +0.025 A 
ATOM      3  C8  UNL     1      -1.234 -14.763  20.092  0.00  0.00    +0.030 A 
ATOM      4  C9  UNL     1      -0.280 -15.295  19.217  0.00  0.00    +0.109 A 
ATOM      5  C10 UNL     1       0.953 -15.727  19.719  0.00  0.00    +0.030 A 
ATOM      6  C11 UNL     1       1.236 -15.618  21.084  0.00  0.00    +0.025 A 
ENDROOT
BRANCH   4   7
ATOM      7  S1  UNL     1      -0.637 -15.417  17.497  0.00  0.00    +0.073 S 
ATOM      8  O2  UNL     1      -2.128 -15.440  17.307  0.00  0.00    -0.150 OA
ATOM      9  O3  UNL     1      -0.048 -16.674  16.923  0.00  0.00    -0.150 OA
BRANCH   7  10
ATOM     10  N3  UNL     1       0.028 -14.051  16.662  0.00  0.00    -0.199 N 
ATOM     11  H8  UNL     1       0.715 -14.229  15.895  0.00  0.00    +0.175 HD
BRANCH  10  12
ATOM     12  C12 UNL     1      -0.357 -12.708  16.980  0.00  0.00    +0.138 A 
ATOM     13  C13 UNL     1       0.546 -11.851  17.622  0.00  0.00    +0.045 A 
ATOM     14  C14 UNL     1       0.157 -10.542  17.917  0.00  0.00    +0.005 A 
ATOM     15  C15 UNL     1      -1.121 -10.102  17.571  0.00  0.00    +0.020 A 
ATOM     16  C16 UNL     1      -1.996 -10.983  16.932  0.00  0.00    +0.113 A 
ATOM     17  N4  UNL     1      -1.600 -12.253  16.654  0.00  0.00    -0.239 NA
ENDBRANCH  10  12
ENDBRANCH   7  10
ENDBRANCH   4   7
BRANCH   1  18
ATOM     18  N2  UNL     1       0.540 -14.956  23.379  0.00  0.00    -0.340 N 
ATOM     19  H3  UNL     1       0.038 -14.204  23.907  0.00  0.00    +0.146 HD
BRANCH  18  20
ATOM     20  C5  UNL     1       1.442 -15.848  24.111  0.00  0.00    +0.143 C 
BRANCH  20  26
ATOM     21  O1  UNL     1      -1.236 -17.136  25.040  0.00  0.00    -0.268 OA
ATOM     22  C1  UNL     1      -0.348 -16.754  25.846  0.00  0.00    +0.266 C 
ATOM     23  N1  UNL     1      -0.445 -16.890  27.260  0.00  0.00    -0.176 NA
ATOM     24  C2  UNL     1       0.672 -16.389  27.684  0.00  0.00    +0.066 A 
ATOM     25  C3  UNL     1       1.505 -15.932  26.664  0.00  0.00    +0.024 A 
ATOM     26  C4  UNL     1       0.916 -16.125  25.489  0.00  0.00    +0.043 C 
ATOM     27  C17 UNL     1       2.750 -15.391  26.991  0.00  0.00    +0.048 A 
ATOM     28  S2  UNL     1       3.975 -14.772  26.021  0.00  0.00    -0.075 S 
ATOM     29  C18 UNL     1       4.964 -14.417  27.348  0.00  0.00    +0.157 A 
ATOM     30  N5  UNL     1       4.378 -14.762  28.521  0.00  0.00    -0.247 NA
ATOM     31  C19 UNL     1       3.148 -15.303  28.322  0.00  0.00    +0.079 A 
ATOM     32  C20 UNL     1       2.310 -15.756  29.356  0.00  0.00    +0.031 A 
ATOM     33  C21 UNL     1       1.053 -16.309  29.034  0.00  0.00    +0.028 A 
ENDBRANCH  20  26
ENDBRANCH  18  20
ENDBRANCH   1  18
TORSDOF 6
ENDMDL
MODEL 5
REMARK minimizedAffinity -6.75073385
REMARK minimizedRMSD -1
REMARK  Name = /home/tchapet/Post-Doc/ARTICLES-DOSSIERS-DES-ARTICLES-EN-REDACTION/NOUVELS-AXES-DE-RECHERCHE-A-REGARDER-URGEMMENT/ARTICLES-EN-REDACTIONS/ARTICLE_MVOTO/Paper2_Sensors_ActuatorsB/docking_rerun/ligands/1712.pdb
REMARK  6 active torsions:
REMARK  status: ('A' for Active; 'I' for Inactive)
REMARK    1  A    between atoms: C4_6  and  C5_7
REMARK    2  A    between atoms: C5_7  and  N2_8
REMARK    3  A    between atoms: N2_8  and  C6_9
REMARK    4  A    between atoms: C9_12  and  S1_15
REMARK    5  A    between atoms: S1_15  and  N3_18
REMARK    6  A    between atoms: N3_18  and  C12_19
REMARK                            x       y       z     vdW  Elec       q    Type
REMARK                         _______ _______ _______ _____ _____    ______ ____
ROOT
ATOM      1  C6  UNL     1       1.528 -15.795  24.035  0.00  0.00    +0.027 A 
ATOM      2  C7  UNL     1       1.635 -16.052  22.659  0.00  0.00    +0.025 A 
ATOM      3  C8  UNL     1       0.686 -15.548  21.766  0.00  0.00    +0.030 A 
ATOM      4  C9  UNL     1      -0.388 -14.784  22.236  0.00  0.00    +0.109 A 
ATOM      5  C10 UNL     1      -0.501 -14.519  23.607  0.00  0.00    +0.030 A 
ATOM      6  C11 UNL     1       0.448 -15.023  24.502  0.00  0.00    +0.025 A 
ENDROOT
BRANCH   4   7
ATOM      7  S1  UNL     1      -1.587 -14.164  21.105  0.00  0.00    +0.073 S 
ATOM      8  O2  UNL     1      -2.325 -13.025  21.750  0.00  0.00    -0.150 OA
ATOM      9  O3  UNL     1      -2.569 -15.240  20.735  0.00  0.00    -0.150 OA
BRANCH   7  10
ATOM     10  N3  UNL     1      -0.801 -13.601  19.667  0.00  0.00    -0.199 N 
ATOM     11  H8  UNL     1       0.212 -13.824  19.539  0.00  0.00    +0.175 HD
BRANCH  10  12
ATOM     12  C12 UNL     1      -1.506 -12.872  18.655  0.00  0.00    +0.138 A 
ATOM     13  C13 UNL     1      -1.002 -11.651  18.188  0.00  0.00    +0.045 A 
ATOM     14  C14 UNL     1      -1.698 -10.957  17.195  0.00  0.00    +0.005 A 
ATOM     15  C15 UNL     1      -2.883 -11.484  16.679  0.00  0.00    +0.020 A 
ATOM     16  C16 UNL     1      -3.357 -12.703  17.167  0.00  0.00    +0.113 A 
ATOM     17  N4  UNL     1      -2.667 -13.363  18.134  0.00  0.00    -0.239 NA
ENDBRANCH  10  12
ENDBRANCH   7  10
ENDBRANCH   4   7
BRANCH   1  18
ATOM     18  N2  UNL     1       2.524 -16.327  24.928  0.00  0.00    -0.340 N 
ATOM     19  H3  UNL     1       2.209 -16.682  25.861  0.00  0.00    +0.146 HD
BRANCH  18  20
ATOM     20  C5  UNL     1       3.944 -16.422  24.581  0.00  0.00    +0.143 C 
BRANCH  20  26
ATOM     21  O1  UNL     1       3.081 -14.298  26.688  0.00  0.00    -0.268 OA
ATOM     22  C1  UNL     1       4.287 -14.556  26.435  0.00  0.00    +0.266 C 
ATOM     23  N1  UNL     1       5.387 -13.937  27.093  0.00  0.00    -0.176 NA
ATOM     24  C2  UNL     1       6.416 -14.499  26.542  0.00  0.00    +0.066 A 
ATOM     25  C3  UNL     1       6.088 -15.442  25.571  0.00  0.00    +0.024 A 
ATOM     26  C4  UNL     1       4.766 -15.515  25.451  0.00  0.00    +0.043 C 
ATOM     27  C17 UNL     1       7.110 -16.136  24.919  0.00  0.00    +0.048 A 
ATOM     28  S2  UNL     1       7.057 -17.323  23.730  0.00  0.00    -0.075 S 
ATOM     29  C18 UNL     1       8.742 -17.457  23.667  0.00  0.00    +0.157 A 
ATOM     30  N5  UNL     1       9.349 -16.613  24.537  0.00  0.00    -0.247 NA
ATOM     31  C19 UNL     1       8.442 -15.879  25.232  0.00  0.00    +0.079 A 
ATOM     32  C20 UNL     1       8.780 -14.924  26.207  0.00  0.00    +0.031 A 
ATOM     33  C21 UNL     1       7.754 -14.224  26.874  0.00  0.00    +0.028 A 
ENDBRANCH  20  26
ENDBRANCH  18  20
ENDBRANCH   1  18
TORSDOF 6
ENDMDL
MODEL 6
REMARK minimizedAffinity -6.73105097
REMARK minimizedRMSD -1
REMARK  Name = /home/tchapet/Post-Doc/ARTICLES-DOSSIERS-DES-ARTICLES-EN-REDACTION/NOUVELS-AXES-DE-RECHERCHE-A-REGARDER-URGEMMENT/ARTICLES-EN-REDACTIONS/ARTICLE_MVOTO/Paper2_Sensors_ActuatorsB/docking_rerun/ligands/1712.pdb
REMARK  6 active torsions:
REMARK  status: ('A' for Active; 'I' for Inactive)
REMARK    1  A    between atoms: C4_6  and  C5_7
REMARK    2  A    between atoms: C5_7  and  N2_8
REMARK    3  A    between atoms: N2_8  and  C6_9
REMARK    4  A    between atoms: C9_12  and  S1_15
REMARK    5  A    between atoms: S1_15  and  N3_18
REMARK    6  A    between atoms: N3_18  and  C12_19
REMARK                            x       y       z     vdW  Elec       q    Type
REMARK                         _______ _______ _______ _____ _____    ______ ____
ROOT
ATOM      1  C6  UNL     1      13.761   0.378   4.952  0.00  0.00    +0.027 A 
ATOM      2  C7  UNL     1      14.153   1.037   6.128  0.00  0.00    +0.025 A 
ATOM      3  C8  UNL     1      14.113   0.378   7.360  0.00  0.00    +0.030 A 
ATOM      4  C9  UNL     1      13.675  -0.949   7.435  0.00  0.00    +0.109 A 
ATOM      5  C10 UNL     1      13.285  -1.616   6.267  0.00  0.00    +0.030 A 
ATOM      6  C11 UNL     1      13.325  -0.958   5.034  0.00  0.00    +0.025 A 
ENDROOT
BRANCH   4   7
ATOM      7  S1  UNL     1      13.615  -1.767   8.993  0.00  0.00    +0.073 S 
ATOM      8  O2  UNL     1      12.329  -1.409   9.685  0.00  0.00    -0.150 OA
ATOM      9  O3  UNL     1      14.771  -1.345   9.855  0.00  0.00    -0.150 OA
BRANCH   7  10
ATOM     10  N3  UNL     1      13.684  -3.482   8.758  0.00  0.00    -0.199 N 
ATOM     11  H8  UNL     1      12.891  -4.062   9.114  0.00  0.00    +0.175 HD
BRANCH  10  12
ATOM     12  C12 UNL     1      14.777  -4.109   8.076  0.00  0.00    +0.138 A 
ATOM     13  C13 UNL     1      15.915  -4.509   8.788  0.00  0.00    +0.045 A 
ATOM     14  C14 UNL     1      16.967  -5.127   8.108  0.00  0.00    +0.005 A 
ATOM     15  C15 UNL     1      16.877  -5.339   6.732  0.00  0.00    +0.020 A 
ATOM     16  C16 UNL     1      15.728  -4.928   6.053  0.00  0.00    +0.113 A 
ATOM     17  N4  UNL     1      14.714  -4.328   6.731  0.00  0.00    -0.239 NA
ENDBRANCH  10  12
ENDBRANCH   7  10
ENDBRANCH   4   7
BRANCH   1  18
ATOM     18  N2  UNL     1      13.816   1.083   3.698  0.00  0.00    -0.340 N 
ATOM     19  H3  UNL     1      14.247   2.036   3.689  0.00  0.00    +0.146 HD
BRANCH  18  20
ATOM     20  C5  UNL     1      13.328   0.518   2.438  0.00  0.00    +0.143 C 
BRANCH  20  26
ATOM     21  O1  UNL     1      15.813  -1.352   2.579  0.00  0.00    -0.268 OA
ATOM     22  C1  UNL     1      15.582  -0.598   1.599  0.00  0.00    +0.266 C 
ATOM     23  N1  UNL     1      16.403  -0.531   0.437  0.00  0.00    -0.176 NA
ATOM     24  C2  UNL     1      15.798   0.343  -0.304  0.00  0.00    +0.066 A 
ATOM     25  C3  UNL     1      14.641   0.862   0.273  0.00  0.00    +0.024 A 
ATOM     26  C4  UNL     1      14.458   0.318   1.471  0.00  0.00    +0.043 C 
ATOM     27  C17 UNL     1      13.885   1.798  -0.437  0.00  0.00    +0.048 A 
ATOM     28  S2  UNL     1      12.459   2.595  -0.043  0.00  0.00    -0.075 S 
ATOM     29  C18 UNL     1      12.422   3.437  -1.510  0.00  0.00    +0.157 A 
ATOM     30  N5  UNL     1      13.479   3.122  -2.300  0.00  0.00    -0.247 NA
ATOM     31  C19 UNL     1      14.291   2.212  -1.703  0.00  0.00    +0.079 A 
ATOM     32  C20 UNL     1      15.461   1.697  -2.287  0.00  0.00    +0.031 A 
ATOM     33  C21 UNL     1      16.227   0.747  -1.579  0.00  0.00    +0.028 A 
ENDBRANCH  20  26
ENDBRANCH  18  20
ENDBRANCH   1  18
TORSDOF 6
ENDMDL
MODEL 7
REMARK minimizedAffinity -6.6876893
REMARK minimizedRMSD -1
REMARK  Name = /home/tchapet/Post-Doc/ARTICLES-DOSSIERS-DES-ARTICLES-EN-REDACTION/NOUVELS-AXES-DE-RECHERCHE-A-REGARDER-URGEMMENT/ARTICLES-EN-REDACTIONS/ARTICLE_MVOTO/Paper2_Sensors_ActuatorsB/docking_rerun/ligands/1712.pdb
REMARK  6 active torsions:
REMARK  status: ('A' for Active; 'I' for Inactive)
REMARK    1  A    between atoms: C4_6  and  C5_7
REMARK    2  A    between atoms: C5_7  and  N2_8
REMARK    3  A    between atoms: N2_8  and  C6_9
REMARK    4  A    between atoms: C9_12  and  S1_15
REMARK    5  A    between atoms: S1_15  and  N3_18
REMARK    6  A    between atoms: N3_18  and  C12_19
REMARK                            x       y       z     vdW  Elec       q    Type
REMARK                         _______ _______ _______ _____ _____    ______ ____
ROOT
ATOM      1  C6  UNL     1       1.529 -15.855  23.992  0.00  0.00    +0.027 A 
ATOM      2  C7  UNL     1       0.467 -15.070  24.468  0.00  0.00    +0.025 A 
ATOM      3  C8  UNL     1      -0.470 -14.530  23.583  0.00  0.00    +0.030 A 
ATOM      4  C9  UNL     1      -0.355 -14.762  22.207  0.00  0.00    +0.109 A 
ATOM      5  C10 UNL     1       0.699 -15.547  21.724  0.00  0.00    +0.030 A 
ATOM      6  C11 UNL     1       1.637 -16.089  22.608  0.00  0.00    +0.025 A 
ENDROOT
BRANCH   4   7
ATOM      7  S1  UNL     1      -1.532 -14.066  21.098  0.00  0.00    +0.073 S 
ATOM      8  O2  UNL     1      -2.165 -12.866  21.745  0.00  0.00    -0.150 OA
ATOM      9  O3  UNL     1      -2.602 -15.068  20.767  0.00  0.00    -0.150 OA
BRANCH   7  10
ATOM     10  N3  UNL     1      -0.743 -13.581  19.633  0.00  0.00    -0.199 N 
ATOM     11  H8  UNL     1       0.244 -13.887  19.480  0.00  0.00    +0.175 HD
BRANCH  10  12
ATOM     12  C12 UNL     1      -1.413 -12.803  18.634  0.00  0.00    +0.138 A 
ATOM     13  C13 UNL     1      -0.898 -11.558  18.249  0.00  0.00    +0.045 A 
ATOM     14  C14 UNL     1      -1.560 -10.817  17.267  0.00  0.00    +0.005 A 
ATOM     15  C15 UNL     1      -2.721 -11.320  16.681  0.00  0.00    +0.020 A 
ATOM     16  C16 UNL     1      -3.207 -12.564  17.088  0.00  0.00    +0.113 A 
ATOM     17  N4  UNL     1      -2.550 -13.271  18.046  0.00  0.00    -0.239 NA
ENDBRANCH  10  12
ENDBRANCH   7  10
ENDBRANCH   4   7
BRANCH   1  18
ATOM     18  N2  UNL     1       2.476 -16.399  24.930  0.00  0.00    -0.340 N 
ATOM     19  H3  UNL     1       2.410 -17.418  25.162  0.00  0.00    +0.146 HD
BRANCH  18  20
ATOM     20  C5  UNL     1       3.541 -15.605  25.546  0.00  0.00    +0.143 C 
BRANCH  20  26
ATOM     21  O1  UNL     1       4.342 -17.941  23.650  0.00  0.00    -0.268 OA
ATOM     22  C1  UNL     1       5.188 -17.236  24.259  0.00  0.00    +0.266 C 
ATOM     23  N1  UNL     1       6.597 -17.401  24.133  0.00  0.00    -0.176 NA
ATOM     24  C2  UNL     1       7.074 -16.477  24.905  0.00  0.00    +0.066 A 
ATOM     25  C3  UNL     1       6.095 -15.711  25.534  0.00  0.00    +0.024 A 
ATOM     26  C4  UNL     1       4.892 -16.146  25.176  0.00  0.00    +0.043 C 
ATOM     27  C17 UNL     1       6.482 -14.666  26.376  0.00  0.00    +0.048 A 
ATOM     28  S2  UNL     1       5.571 -13.564  27.261  0.00  0.00    -0.075 S 
ATOM     29  C18 UNL     1       6.945 -12.794  27.880  0.00  0.00    +0.157 A 
ATOM     30  N5  UNL     1       8.090 -13.361  27.424  0.00  0.00    -0.247 NA
ATOM     31  C19 UNL     1       7.832 -14.400  26.589  0.00  0.00    +0.079 A 
ATOM     32  C20 UNL     1       8.824 -15.173  25.963  0.00  0.00    +0.031 A 
ATOM     33  C21 UNL     1       8.442 -16.227  25.106  0.00  0.00    +0.028 A 
ENDBRANCH  20  26
ENDBRANCH  18  20
ENDBRANCH   1  18
TORSDOF 6
ENDMDL
MODEL 8
REMARK minimizedAffinity -6.54291201
REMARK minimizedRMSD -1
REMARK  Name = /home/tchapet/Post-Doc/ARTICLES-DOSSIERS-DES-ARTICLES-EN-REDACTION/NOUVELS-AXES-DE-RECHERCHE-A-REGARDER-URGEMMENT/ARTICLES-EN-REDACTIONS/ARTICLE_MVOTO/Paper2_Sensors_ActuatorsB/docking_rerun/ligands/1712.pdb
REMARK  6 active torsions:
REMARK  status: ('A' for Active; 'I' for Inactive)
REMARK    1  A    between atoms: C4_6  and  C5_7
REMARK    2  A    between atoms: C5_7  and  N2_8
REMARK    3  A    between atoms: N2_8  and  C6_9
REMARK    4  A    between atoms: C9_12  and  S1_15
REMARK    5  A    between atoms: S1_15  and  N3_18
REMARK    6  A    between atoms: N3_18  and  C12_19
REMARK                            x       y       z     vdW  Elec       q    Type
REMARK                         _______ _______ _______ _____ _____    ______ ____
ROOT
ATOM      1  C6  UNL     1      -1.078 -13.864  21.277  0.00  0.00    +0.027 A 
ATOM      2  C7  UNL     1      -1.496 -13.521  22.573  0.00  0.00    +0.025 A 
ATOM      3  C8  UNL     1      -0.839 -14.039  23.692  0.00  0.00    +0.030 A 
ATOM      4  C9  UNL     1       0.242 -14.913  23.532  0.00  0.00    +0.109 A 
ATOM      5  C10 UNL     1       0.669 -15.257  22.244  0.00  0.00    +0.030 A 
ATOM      6  C11 UNL     1       0.013 -14.739  21.123  0.00  0.00    +0.025 A 
ENDROOT
BRANCH   4   7
ATOM      7  S1  UNL     1       1.055 -15.572  24.949  0.00  0.00    +0.073 S 
ATOM      8  O2  UNL     1       1.785 -16.825  24.556  0.00  0.00    -0.150 OA
ATOM      9  O3  UNL     1       0.058 -15.900  26.025  0.00  0.00    -0.150 OA
BRANCH   7  10
ATOM     10  N3  UNL     1       2.188 -14.415  25.566  0.00  0.00    -0.199 N 
ATOM     11  H8  UNL     1       1.919 -13.405  25.553  0.00  0.00    +0.175 HD
BRANCH  10  12
ATOM     12  C12 UNL     1       3.454 -14.810  26.109  0.00  0.00    +0.138 A 
ATOM     13  C13 UNL     1       4.598 -14.806  25.301  0.00  0.00    +0.045 A 
ATOM     14  C14 UNL     1       5.826 -15.186  25.848  0.00  0.00    +0.005 A 
ATOM     15  C15 UNL     1       5.902 -15.565  27.189  0.00  0.00    +0.020 A 
ATOM     16  C16 UNL     1       4.742 -15.558  27.966  0.00  0.00    +0.113 A 
ATOM     17  N4  UNL     1       3.556 -15.186  27.416  0.00  0.00    -0.239 NA
ENDBRANCH  10  12
ENDBRANCH   7  10
ENDBRANCH   4   7
BRANCH   1  18
ATOM     18  N2  UNL     1      -1.774 -13.311  20.144  0.00  0.00    -0.340 N 
ATOM     19  H3  UNL     1      -2.101 -12.319  20.204  0.00  0.00    +0.146 HD
BRANCH  18  20
ATOM     20  C5  UNL     1      -2.014 -14.059  18.908  0.00  0.00    +0.143 C 
BRANCH  20  26
ATOM     21  O1  UNL     1      -1.288 -11.061  18.490  0.00  0.00    -0.268 OA
ATOM     22  C1  UNL     1      -1.071 -11.943  17.619  0.00  0.00    +0.266 C 
ATOM     23  N1  UNL     1      -0.447 -11.685  16.365  0.00  0.00    -0.176 NA
ATOM     24  C2  UNL     1      -0.413 -12.852  15.805  0.00  0.00    +0.066 A 
ATOM     25  C3  UNL     1      -0.963 -13.866  16.587  0.00  0.00    +0.024 A 
ATOM     26  C4  UNL     1      -1.402 -13.355  17.732  0.00  0.00    +0.043 C 
ATOM     27  C17 UNL     1      -0.965 -15.176  16.103  0.00  0.00    +0.048 A 
ATOM     28  S2  UNL     1      -1.528 -16.605  16.786  0.00  0.00    -0.075 S 
ATOM     29  C18 UNL     1      -1.063 -17.529  15.447  0.00  0.00    +0.157 A 
ATOM     30  N5  UNL     1      -0.483 -16.769  14.485  0.00  0.00    -0.247 NA
ATOM     31  C19 UNL     1      -0.429 -15.462  14.851  0.00  0.00    +0.079 A 
ATOM     32  C20 UNL     1       0.122 -14.443  14.054  0.00  0.00    +0.031 A 
ATOM     33  C21 UNL     1       0.132 -13.118  14.537  0.00  0.00    +0.028 A 
ENDBRANCH  20  26
ENDBRANCH  18  20
ENDBRANCH   1  18
TORSDOF 6
ENDMDL
MODEL 9
REMARK minimizedAffinity -6.53238821
REMARK minimizedRMSD -1
REMARK  Name = /home/tchapet/Post-Doc/ARTICLES-DOSSIERS-DES-ARTICLES-EN-REDACTION/NOUVELS-AXES-DE-RECHERCHE-A-REGARDER-URGEMMENT/ARTICLES-EN-REDACTIONS/ARTICLE_MVOTO/Paper2_Sensors_ActuatorsB/docking_rerun/ligands/1712.pdb
REMARK  6 active torsions:
REMARK  status: ('A' for Active; 'I' for Inactive)
REMARK    1  A    between atoms: C4_6  and  C5_7
REMARK    2  A    between atoms: C5_7  and  N2_8
REMARK    3  A    between atoms: N2_8  and  C6_9
REMARK    4  A    between atoms: C9_12  and  S1_15
REMARK    5  A    between atoms: S1_15  and  N3_18
REMARK    6  A    between atoms: N3_18  and  C12_19
REMARK                            x       y       z     vdW  Elec       q    Type
REMARK                         _______ _______ _______ _____ _____    ______ ____
ROOT
ATOM      1  C6  UNL     1      -0.478 -14.899  13.887  0.00  0.00    +0.027 A 
ATOM      2  C7  UNL     1      -1.713 -15.303  14.420  0.00  0.00    +0.025 A 
ATOM      3  C8  UNL     1      -2.380 -14.504  15.353  0.00  0.00    +0.030 A 
ATOM      4  C9  UNL     1      -1.818 -13.292  15.772  0.00  0.00    +0.109 A 
ATOM      5  C10 UNL     1      -0.589 -12.880  15.243  0.00  0.00    +0.030 A 
ATOM      6  C11 UNL     1       0.079 -13.677  14.309  0.00  0.00    +0.025 A 
ENDROOT
BRANCH   4   7
ATOM      7  S1  UNL     1      -2.659 -12.299  16.958  0.00  0.00    +0.073 S 
ATOM      8  O2  UNL     1      -3.873 -13.039  17.445  0.00  0.00    -0.150 OA
ATOM      9  O3  UNL     1      -3.089 -10.996  16.347  0.00  0.00    -0.150 OA
BRANCH   7  10
ATOM     10  N3  UNL     1      -1.609 -11.971  18.298  0.00  0.00    -0.199 N 
ATOM     11  H8  UNL     1      -1.364 -10.976  18.502  0.00  0.00    +0.175 HD
BRANCH  10  12
ATOM     12  C12 UNL     1      -1.098 -13.017  19.133  0.00  0.00    +0.138 A 
ATOM     13  C13 UNL     1      -1.695 -13.283  20.373  0.00  0.00    +0.045 A 
ATOM     14  C14 UNL     1      -1.190 -14.312  21.171  0.00  0.00    +0.005 A 
ATOM     15  C15 UNL     1      -0.100 -15.063  20.729  0.00  0.00    +0.020 A 
ATOM     16  C16 UNL     1       0.471 -14.772  19.489  0.00  0.00    +0.113 A 
ATOM     17  N4  UNL     1      -0.034 -13.766  18.726  0.00  0.00    -0.239 NA
ENDBRANCH  10  12
ENDBRANCH   7  10
ENDBRANCH   4   7
BRANCH   1  18
ATOM     18  N2  UNL     1       0.182 -15.743  12.926  0.00  0.00    -0.340 N 
ATOM     19  H3  UNL     1       1.085 -15.409  12.515  0.00  0.00    +0.146 HD
BRANCH  18  20
ATOM     20  C5  UNL     1      -0.333 -17.054  12.522  0.00  0.00    +0.143 C 
BRANCH  20  26
ATOM     21  O1  UNL     1      -2.544 -15.606  10.877  0.00  0.00    -0.268 OA
ATOM     22  C1  UNL     1      -1.680 -16.352  10.348  0.00  0.00    +0.266 C 
ATOM     23  N1  UNL     1      -1.591 -16.597   8.948  0.00  0.00    -0.176 NA
ATOM     24  C2  UNL     1      -0.572 -17.392   8.850  0.00  0.00    +0.066 A 
ATOM     25  C3  UNL     1       0.024 -17.693  10.073  0.00  0.00    +0.024 A 
ATOM     26  C4  UNL     1      -0.633 -17.078  11.051  0.00  0.00    +0.043 C 
ATOM     27  C17 UNL     1       1.147 -18.523  10.099  0.00  0.00    +0.048 A 
ATOM     28  S2  UNL     1       2.093 -19.063  11.379  0.00  0.00    -0.075 S 
ATOM     29  C18 UNL     1       3.117 -19.946  10.363  0.00  0.00    +0.157 A 
ATOM     30  N5  UNL     1       2.753 -19.838   9.061  0.00  0.00    -0.247 NA
ATOM     31  C19 UNL     1       1.659 -19.047   8.916  0.00  0.00    +0.079 A 
ATOM     32  C20 UNL     1       1.058 -18.752   7.679  0.00  0.00    +0.031 A 
ATOM     33  C21 UNL     1      -0.073 -17.911   7.644  0.00  0.00    +0.028 A 
ENDBRANCH  20  26
ENDBRANCH  18  20
ENDBRANCH   1  18
TORSDOF 6
ENDMDL
