MODEL 1
REMARK minimizedAffinity -6.44187784
REMARK minimizedRMSD -1
REMARK  Name = /home/tchapet/Post-Doc/ARTICLES-DOSSIERS-DES-ARTICLES-EN-REDACTION/NOUVELS-AXES-DE-RECHERCHE-A-REGARDER-URGEMMENT/ARTICLES-EN-REDACTIONS/ARTICLE_MVOTO/Paper2_Sensors_ActuatorsB/docking_rerun/ligands/1712.pdb
REMARK  6 active torsions:
REMARK  status: ('A' for Active; 'I' for Inactive)
REMARK    1  A    between atoms: C4_6  and  C5_7
REMARK    2  A    between atoms: C5_7  and  N2_8
REMARK    3  A    between atoms: N2_8  and  C6_9
REMARK    4  A    between atoms: C9_12  and  S1_15
REMARK    5  A    between atoms: S1_15  and  N3_18
REMARK    6  A    between atoms: N3_18  and  C12_19
REMARK                            x       y       z     vdW  Elec       q    Type
REMARK                         _______ _______ _______ _____ _____    ______ ____
ROOT
ATOM      1  C6  UNL     1       5.084  13.749  20.921  0.00  0.00    +0.027 A 
ATOM      2  C7  UNL     1       4.667  12.618  20.202  0.00  0.00    +0.025 A 
ATOM      3  C8  UNL     1       5.174  12.362  18.925  0.00  0.00    +0.030 A 
ATOM      4  C9  UNL     1       6.101  13.237  18.346  0.00  0.00    +0.109 A 
ATOM      5  C10 UNL     1       6.525  14.365  19.058  0.00  0.00    +0.030 A 
ATOM      6  C11 UNL     1       6.019  14.623  20.336  0.00  0.00    +0.025 A 
ENDROOT
BRANCH   4   7
ATOM      7  S1  UNL     1       6.723  12.913  16.731  0.00  0.00    +0.073 S 
ATOM      8  O2  UNL     1       5.748  13.440  15.716  0.00  0.00    -0.150 OA
ATOM      9  O3  UNL     1       6.903  11.436  16.520  0.00  0.00    -0.150 OA
BRANCH   7  10
ATOM     10  N3  UNL     1       8.253  13.701  16.523  0.00  0.00    -0.199 N 
ATOM     11  H8  UNL     1       9.099  13.257  16.945  0.00  0.00    +0.175 HD
BRANCH  10  12
ATOM     12  C12 UNL     1       8.383  14.916  15.774  0.00  0.00    +0.138 A 
ATOM     13  C13 UNL     1       8.499  16.144  16.440  0.00  0.00    +0.045 A 
ATOM     14  C14 UNL     1       8.633  17.317  15.694  0.00  0.00    +0.005 A 
ATOM     15  C15 UNL     1       8.652  17.258  14.300  0.00  0.00    +0.020 A 
ATOM     16  C16 UNL     1       8.534  16.018  13.669  0.00  0.00    +0.113 A 
ATOM     17  N4  UNL     1       8.403  14.886  14.411  0.00  0.00    -0.239 NA
ENDBRANCH  10  12
ENDBRANCH   7  10
ENDBRANCH   4   7
BRANCH   1  18
ATOM     18  N2  UNL     1       4.545  13.984  22.236  0.00  0.00    -0.340 N 
ATOM     19  H3  UNL     1       3.705  13.434  22.528  0.00  0.00    +0.146 HD
BRANCH  18  20
ATOM     20  C5  UNL     1       5.136  14.928  23.188  0.00  0.00    +0.143 C 
BRANCH  20  26
ATOM     21  O1  UNL     1       2.115  15.664  23.351  0.00  0.00    -0.268 OA
ATOM     22  C1  UNL     1       3.021  16.528  23.219  0.00  0.00    +0.266 C 
ATOM     23  N1  UNL     1       2.780  17.930  23.159  0.00  0.00    -0.176 NA
ATOM     24  C2  UNL     1       3.968  18.431  23.038  0.00  0.00    +0.066 A 
ATOM     25  C3  UNL     1       4.980  17.473  23.013  0.00  0.00    +0.024 A 
ATOM     26  C4  UNL     1       4.448  16.260  23.113  0.00  0.00    +0.043 C 
ATOM     27  C17 UNL     1       6.310  17.888  22.908  0.00  0.00    +0.048 A 
ATOM     28  S2  UNL     1       7.742  17.009  22.864  0.00  0.00    -0.075 S 
ATOM     29  C18 UNL     1       8.694  18.402  22.736  0.00  0.00    +0.157 A 
ATOM     30  N5  UNL     1       7.941  19.529  22.727  0.00  0.00    -0.247 NA
ATOM     31  C19 UNL     1       6.617  19.243  22.822  0.00  0.00    +0.079 A 
ATOM     32  C20 UNL     1       5.600  20.214  22.840  0.00  0.00    +0.031 A 
ATOM     33  C21 UNL     1       4.255  19.804  22.951  0.00  0.00    +0.028 A 
ENDBRANCH  20  26
ENDBRANCH  18  20
ENDBRANCH   1  18
TORSDOF 6
ENDMDL
MODEL 2
REMARK minimizedAffinity -6.43654728
REMARK minimizedRMSD -1
REMARK  Name = /home/tchapet/Post-Doc/ARTICLES-DOSSIERS-DES-ARTICLES-EN-REDACTION/NOUVELS-AXES-DE-RECHERCHE-A-REGARDER-URGEMMENT/ARTICLES-EN-REDACTIONS/ARTICLE_MVOTO/Paper2_Sensors_ActuatorsB/docking_rerun/ligands/1712.pdb
REMARK  6 active torsions:
REMARK  status: ('A' for Active; 'I' for Inactive)
REMARK    1  A    between atoms: C4_6  and  C5_7
REMARK    2  A    between atoms: C5_7  and  N2_8
REMARK    3  A    between atoms: N2_8  and  C6_9
REMARK    4  A    between atoms: C9_12  and  S1_15
REMARK    5  A    between atoms: S1_15  and  N3_18
REMARK    6  A    between atoms: N3_18  and  C12_19
REMARK                            x       y       z     vdW  Elec       q    Type
REMARK                         _______ _______ _______ _____ _____    ______ ____
ROOT
ATOM      1  C6  UNL     1       4.335  13.165  18.926  0.00  0.00    +0.027 A 
ATOM      2  C7  UNL     1       4.181  14.552  18.766  0.00  0.00    +0.025 A 
ATOM      3  C8  UNL     1       4.465  15.425  19.820  0.00  0.00    +0.030 A 
ATOM      4  C9  UNL     1       4.900  14.924  21.052  0.00  0.00    +0.109 A 
ATOM      5  C10 UNL     1       5.060  13.543  21.220  0.00  0.00    +0.030 A 
ATOM      6  C11 UNL     1       4.777  12.668  20.166  0.00  0.00    +0.025 A 
ENDROOT
BRANCH   4   7
ATOM      7  S1  UNL     1       5.242  16.031  22.378  0.00  0.00    +0.073 S 
ATOM      8  O2  UNL     1       4.424  15.629  23.574  0.00  0.00    -0.150 OA
ATOM      9  O3  UNL     1       4.892  17.440  21.993  0.00  0.00    -0.150 OA
BRANCH   7  10
ATOM     10  N3  UNL     1       6.926  15.960  22.782  0.00  0.00    -0.199 N 
ATOM     11  H8  UNL     1       7.225  15.303  23.537  0.00  0.00    +0.175 HD
BRANCH  10  12
ATOM     12  C12 UNL     1       7.903  16.753  22.097  0.00  0.00    +0.138 A 
ATOM     13  C13 UNL     1       8.954  17.346  22.809  0.00  0.00    +0.045 A 
ATOM     14  C14 UNL     1       9.902  18.109  22.123  0.00  0.00    +0.005 A 
ATOM     15  C15 UNL     1       9.795  18.274  20.742  0.00  0.00    +0.020 A 
ATOM     16  C16 UNL     1       8.735  17.670  20.063  0.00  0.00    +0.113 A 
ATOM     17  N4  UNL     1       7.821  16.931  20.747  0.00  0.00    -0.239 NA
ENDBRANCH  10  12
ENDBRANCH   7  10
ENDBRANCH   4   7
BRANCH   1  18
ATOM     18  N2  UNL     1       4.037  12.292  17.821  0.00  0.00    -0.340 N 
ATOM     19  H3  UNL     1       3.042  12.221  17.505  0.00  0.00    +0.146 HD
BRANCH  18  20
ATOM     20  C5  UNL     1       5.061  11.529  17.103  0.00  0.00    +0.143 C 
BRANCH  20  26
ATOM     21  O1  UNL     1       3.226  10.363  14.875  0.00  0.00    -0.268 OA
ATOM     22  C1  UNL     1       4.097  11.242  14.649  0.00  0.00    +0.266 C 
ATOM     23  N1  UNL     1       4.327  11.824  13.370  0.00  0.00    -0.176 NA
ATOM     24  C2  UNL     1       5.282  12.670  13.596  0.00  0.00    +0.066 A 
ATOM     25  C3  UNL     1       5.704  12.698  14.924  0.00  0.00    +0.024 A 
ATOM     26  C4  UNL     1       5.005  11.817  15.631  0.00  0.00    +0.043 C 
ATOM     27  C17 UNL     1       6.713  13.587  15.300  0.00  0.00    +0.048 A 
ATOM     28  S2  UNL     1       7.431  13.877  16.792  0.00  0.00    -0.075 S 
ATOM     29  C18 UNL     1       8.456  15.068  16.165  0.00  0.00    +0.157 A 
ATOM     30  N5  UNL     1       8.262  15.252  14.836  0.00  0.00    -0.247 NA
ATOM     31  C19 UNL     1       7.294  14.429  14.356  0.00  0.00    +0.079 A 
ATOM     32  C20 UNL     1       6.877  14.401  13.014  0.00  0.00    +0.031 A 
ATOM     33  C21 UNL     1       5.855  13.510  12.626  0.00  0.00    +0.028 A 
ENDBRANCH  20  26
ENDBRANCH  18  20
ENDBRANCH   1  18
TORSDOF 6
ENDMDL
MODEL 3
REMARK minimizedAffinity -6.43388844
REMARK minimizedRMSD -1
REMARK  Name = /home/tchapet/Post-Doc/ARTICLES-DOSSIERS-DES-ARTICLES-EN-REDACTION/NOUVELS-AXES-DE-RECHERCHE-A-REGARDER-URGEMMENT/ARTICLES-EN-REDACTIONS/ARTICLE_MVOTO/Paper2_Sensors_ActuatorsB/docking_rerun/ligands/1712.pdb
REMARK  6 active torsions:
REMARK  status: ('A' for Active; 'I' for Inactive)
REMARK    1  A    between atoms: C4_6  and  C5_7
REMARK    2  A    between atoms: C5_7  and  N2_8
REMARK    3  A    between atoms: N2_8  and  C6_9
REMARK    4  A    between atoms: C9_12  and  S1_15
REMARK    5  A    between atoms: S1_15  and  N3_18
REMARK    6  A    between atoms: N3_18  and  C12_19
REMARK                            x       y       z     vdW  Elec       q    Type
REMARK                         _______ _______ _______ _____ _____    ______ ____
ROOT
ATOM      1  C6  UNL     1       7.796  16.725  21.836  0.00  0.00    +0.027 A 
ATOM      2  C7  UNL     1       6.602  17.208  22.395  0.00  0.00    +0.025 A 
ATOM      3  C8  UNL     1       6.627  18.032  23.523  0.00  0.00    +0.030 A 
ATOM      4  C9  UNL     1       7.848  18.381  24.113  0.00  0.00    +0.109 A 
ATOM      5  C10 UNL     1       9.044  17.908  23.561  0.00  0.00    +0.030 A 
ATOM      6  C11 UNL     1       9.020  17.083  22.432  0.00  0.00    +0.025 A 
ENDROOT
BRANCH   4   7
ATOM      7  S1  UNL     1       7.869  19.409  25.543  0.00  0.00    +0.073 S 
ATOM      8  O2  UNL     1       6.667  19.097  26.389  0.00  0.00    -0.150 OA
ATOM      9  O3  UNL     1       7.832  20.859  25.151  0.00  0.00    -0.150 OA
BRANCH   7  10
ATOM     10  N3  UNL     1       9.311  19.111  26.458  0.00  0.00    -0.199 N 
ATOM     11  H8  UNL     1       9.812  18.207  26.308  0.00  0.00    +0.175 HD
BRANCH  10  12
ATOM     12  C12 UNL     1       9.833  20.072  27.383  0.00  0.00    +0.138 A 
ATOM     13  C13 UNL     1      11.097  20.637  27.171  0.00  0.00    +0.045 A 
ATOM     14  C14 UNL     1      11.588  21.580  28.079  0.00  0.00    +0.005 A 
ATOM     15  C15 UNL     1      10.818  21.948  29.183  0.00  0.00    +0.020 A 
ATOM     16  C16 UNL     1       9.562  21.365  29.364  0.00  0.00    +0.113 A 
ATOM     17  N4  UNL     1       9.102  20.449  28.471  0.00  0.00    -0.239 NA
ENDBRANCH  10  12
ENDBRANCH   7  10
ENDBRANCH   4   7
BRANCH   1  18
ATOM     18  N2  UNL     1       7.736  15.880  20.672  0.00  0.00    -0.340 N 
ATOM     19  H3  UNL     1       8.522  15.208  20.511  0.00  0.00    +0.146 HD
BRANCH  18  20
ATOM     20  C5  UNL     1       6.617  15.895  19.727  0.00  0.00    +0.143 C 
BRANCH  20  26
ATOM     21  O1  UNL     1       5.172  13.863  21.590  0.00  0.00    -0.268 OA
ATOM     22  C1  UNL     1       5.434  13.615  20.385  0.00  0.00    +0.266 C 
ATOM     23  N1  UNL     1       5.081  12.402  19.727  0.00  0.00    -0.176 NA
ATOM     24  C2  UNL     1       5.523  12.579  18.522  0.00  0.00    +0.066 A 
ATOM     25  C3  UNL     1       6.141  13.812  18.326  0.00  0.00    +0.024 A 
ATOM     26  C4  UNL     1       6.126  14.503  19.461  0.00  0.00    +0.043 C 
ATOM     27  C17 UNL     1       6.639  14.132  17.061  0.00  0.00    +0.048 A 
ATOM     28  S2  UNL     1       7.415  15.512  16.495  0.00  0.00    -0.075 S 
ATOM     29  C18 UNL     1       7.572  14.887  14.931  0.00  0.00    +0.157 A 
ATOM     30  N5  UNL     1       7.043  13.643  14.828  0.00  0.00    -0.247 NA
ATOM     31  C19 UNL     1       6.525  13.224  16.012  0.00  0.00    +0.079 A 
ATOM     32  C20 UNL     1       5.908  11.976  16.205  0.00  0.00    +0.031 A 
ATOM     33  C21 UNL     1       5.397  11.647  17.478  0.00  0.00    +0.028 A 
ENDBRANCH  20  26
ENDBRANCH  18  20
ENDBRANCH   1  18
TORSDOF 6
ENDMDL
MODEL 4
REMARK minimizedAffinity -6.3588357
REMARK minimizedRMSD -1
REMARK  Name = /home/tchapet/Post-Doc/ARTICLES-DOSSIERS-DES-ARTICLES-EN-REDACTION/NOUVELS-AXES-DE-RECHERCHE-A-REGARDER-URGEMMENT/ARTICLES-EN-REDACTIONS/ARTICLE_MVOTO/Paper2_Sensors_ActuatorsB/docking_rerun/ligands/1712.pdb
REMARK  6 active torsions:
REMARK  status: ('A' for Active; 'I' for Inactive)
REMARK    1  A    between atoms: C4_6  and  C5_7
REMARK    2  A    between atoms: C5_7  and  N2_8
REMARK    3  A    between atoms: N2_8  and  C6_9
REMARK    4  A    between atoms: C9_12  and  S1_15
REMARK    5  A    between atoms: S1_15  and  N3_18
REMARK    6  A    between atoms: N3_18  and  C12_19
REMARK                            x       y       z     vdW  Elec       q    Type
REMARK                         _______ _______ _______ _____ _____    ______ ____
ROOT
ATOM      1  C6  UNL     1       6.342  18.521  23.853  0.00  0.00    +0.027 A 
ATOM      2  C7  UNL     1       5.795  19.485  24.716  0.00  0.00    +0.025 A 
ATOM      3  C8  UNL     1       6.565  20.037  25.744  0.00  0.00    +0.030 A 
ATOM      4  C9  UNL     1       7.891  19.629  25.927  0.00  0.00    +0.109 A 
ATOM      5  C10 UNL     1       8.446  18.672  25.069  0.00  0.00    +0.030 A 
ATOM      6  C11 UNL     1       7.677  18.119  24.040  0.00  0.00    +0.025 A 
ENDROOT
BRANCH   4   7
ATOM      7  S1  UNL     1       8.849  20.320  27.234  0.00  0.00    +0.073 S 
ATOM      8  O2  UNL     1       8.125  21.511  27.794  0.00  0.00    -0.150 OA
ATOM      9  O3  UNL     1      10.195  20.755  26.728  0.00  0.00    -0.150 OA
BRANCH   7  10
ATOM     10  N3  UNL     1       9.072  19.140  28.484  0.00  0.00    -0.199 N 
ATOM     11  H8  UNL     1      10.018  18.712  28.596  0.00  0.00    +0.175 HD
BRANCH  10  12
ATOM     12  C12 UNL     1       8.010  18.766  29.370  0.00  0.00    +0.138 A 
ATOM     13  C13 UNL     1       7.015  17.877  28.940  0.00  0.00    +0.045 A 
ATOM     14  C14 UNL     1       5.992  17.516  29.819  0.00  0.00    +0.005 A 
ATOM     15  C15 UNL     1       5.968  18.041  31.112  0.00  0.00    +0.020 A 
ATOM     16  C16 UNL     1       6.974  18.924  31.508  0.00  0.00    +0.113 A 
ATOM     17  N4  UNL     1       7.962  19.265  30.638  0.00  0.00    -0.239 NA
ENDBRANCH  10  12
ENDBRANCH   7  10
ENDBRANCH   4   7
BRANCH   1  18
ATOM     18  N2  UNL     1       5.524  17.974  22.802  0.00  0.00    -0.340 N 
ATOM     19  H3  UNL     1       4.485  18.055  22.894  0.00  0.00    +0.146 HD
BRANCH  18  20
ATOM     20  C5  UNL     1       6.077  17.340  21.603  0.00  0.00    +0.143 C 
BRANCH  20  26
ATOM     21  O1  UNL     1       4.227  15.656  23.456  0.00  0.00    -0.268 OA
ATOM     22  C1  UNL     1       4.719  15.203  22.390  0.00  0.00    +0.266 C 
ATOM     23  N1  UNL     1       4.469  13.892  21.893  0.00  0.00    -0.176 NA
ATOM     24  C2  UNL     1       5.148  13.858  20.790  0.00  0.00    +0.066 A 
ATOM     25  C3  UNL     1       5.830  15.041  20.514  0.00  0.00    +0.024 A 
ATOM     26  C4  UNL     1       5.608  15.919  21.486  0.00  0.00    +0.043 C 
ATOM     27  C17 UNL     1       6.581  15.138  19.341  0.00  0.00    +0.048 A 
ATOM     28  S2  UNL     1       7.495  16.403  18.715  0.00  0.00    -0.075 S 
ATOM     29  C18 UNL     1       7.944  15.516  17.347  0.00  0.00    +0.157 A 
ATOM     30  N5  UNL     1       7.410  14.269  17.355  0.00  0.00    -0.247 NA
ATOM     31  C19 UNL     1       6.653  14.061  18.463  0.00  0.00    +0.079 A 
ATOM     32  C20 UNL     1       5.973  12.862  18.739  0.00  0.00    +0.031 A 
ATOM     33  C21 UNL     1       5.208  12.757  19.919  0.00  0.00    +0.028 A 
ENDBRANCH  20  26
ENDBRANCH  18  20
ENDBRANCH   1  18
TORSDOF 6
ENDMDL
MODEL 5
REMARK minimizedAffinity -6.26517677
REMARK minimizedRMSD -1
REMARK  Name = /home/tchapet/Post-Doc/ARTICLES-DOSSIERS-DES-ARTICLES-EN-REDACTION/NOUVELS-AXES-DE-RECHERCHE-A-REGARDER-URGEMMENT/ARTICLES-EN-REDACTIONS/ARTICLE_MVOTO/Paper2_Sensors_ActuatorsB/docking_rerun/ligands/1712.pdb
REMARK  6 active torsions:
REMARK  status: ('A' for Active; 'I' for Inactive)
REMARK    1  A    between atoms: C4_6  and  C5_7
REMARK    2  A    between atoms: C5_7  and  N2_8
REMARK    3  A    between atoms: N2_8  and  C6_9
REMARK    4  A    between atoms: C9_12  and  S1_15
REMARK    5  A    between atoms: S1_15  and  N3_18
REMARK    6  A    between atoms: N3_18  and  C12_19
REMARK                            x       y       z     vdW  Elec       q    Type
REMARK                         _______ _______ _______ _____ _____    ______ ____
ROOT
ATOM      1  C6  UNL     1       6.089  -4.806  33.366  0.00  0.00    +0.027 A 
ATOM      2  C7  UNL     1       5.610  -6.094  33.653  0.00  0.00    +0.025 A 
ATOM      3  C8  UNL     1       5.584  -6.565  34.968  0.00  0.00    +0.030 A 
ATOM      4  C9  UNL     1       6.042  -5.757  36.016  0.00  0.00    +0.109 A 
ATOM      5  C10 UNL     1       6.517  -4.470  35.739  0.00  0.00    +0.030 A 
ATOM      6  C11 UNL     1       6.544  -3.996  34.423  0.00  0.00    +0.025 A 
ENDROOT
BRANCH   4   7
ATOM      7  S1  UNL     1       6.018  -6.365  37.668  0.00  0.00    +0.073 S 
ATOM      8  O2  UNL     1       7.387  -6.871  38.024  0.00  0.00    -0.150 OA
ATOM      9  O3  UNL     1       5.028  -7.487  37.804  0.00  0.00    -0.150 OA
BRANCH   7  10
ATOM     10  N3  UNL     1       5.575  -5.090  38.756  0.00  0.00    -0.199 N 
ATOM     11  H8  UNL     1       6.314  -4.693  39.378  0.00  0.00    +0.175 HD
BRANCH  10  12
ATOM     12  C12 UNL     1       4.244  -4.561  38.800  0.00  0.00    +0.138 A 
ATOM     13  C13 UNL     1       3.916  -3.417  38.060  0.00  0.00    +0.045 A 
ATOM     14  C14 UNL     1       2.612  -2.920  38.109  0.00  0.00    +0.005 A 
ATOM     15  C15 UNL     1       1.651  -3.563  38.889  0.00  0.00    +0.020 A 
ATOM     16  C16 UNL     1       2.011  -4.700  39.614  0.00  0.00    +0.113 A 
ATOM     17  N4  UNL     1       3.286  -5.170  39.556  0.00  0.00    -0.239 NA
ENDBRANCH  10  12
ENDBRANCH   7  10
ENDBRANCH   4   7
BRANCH   1  18
ATOM     18  N2  UNL     1       6.100  -4.348  32.001  0.00  0.00    -0.340 N 
ATOM     19  H3  UNL     1       5.931  -3.332  31.821  0.00  0.00    +0.146 HD
BRANCH  18  20
ATOM     20  C5  UNL     1       6.369  -5.230  30.862  0.00  0.00    +0.143 C 
BRANCH  20  26
ATOM     21  O1  UNL     1       3.987  -3.235  30.659  0.00  0.00    -0.268 OA
ATOM     22  C1  UNL     1       4.363  -3.949  29.693  0.00  0.00    +0.266 C 
ATOM     23  N1  UNL     1       3.771  -3.909  28.399  0.00  0.00    -0.176 NA
ATOM     24  C2  UNL     1       4.463  -4.776  27.729  0.00  0.00    +0.066 A 
ATOM     25  C3  UNL     1       5.468  -5.387  28.475  0.00  0.00    +0.024 A 
ATOM     26  C4  UNL     1       5.449  -4.917  29.718  0.00  0.00    +0.043 C 
ATOM     27  C17 UNL     1       6.300  -6.325  27.860  0.00  0.00    +0.048 A 
ATOM     28  S2  UNL     1       7.591  -7.220  28.459  0.00  0.00    -0.075 S 
ATOM     29  C18 UNL     1       7.863  -7.985  26.975  0.00  0.00    +0.157 A 
ATOM     30  N5  UNL     1       6.987  -7.571  26.025  0.00  0.00    -0.247 NA
ATOM     31  C19 UNL     1       6.120  -6.649  26.518  0.00  0.00    +0.079 A 
ATOM     32  C20 UNL     1       5.103  -6.040  25.762  0.00  0.00    +0.031 A 
ATOM     33  C21 UNL     1       4.262  -5.088  26.374  0.00  0.00    +0.028 A 
ENDBRANCH  20  26
ENDBRANCH  18  20
ENDBRANCH   1  18
TORSDOF 6
ENDMDL
MODEL 6
REMARK minimizedAffinity -6.23461771
REMARK minimizedRMSD -1
REMARK  Name = /home/tchapet/Post-Doc/ARTICLES-DOSSIERS-DES-ARTICLES-EN-REDACTION/NOUVELS-AXES-DE-RECHERCHE-A-REGARDER-URGEMMENT/ARTICLES-EN-REDACTIONS/ARTICLE_MVOTO/Paper2_Sensors_ActuatorsB/docking_rerun/ligands/1712.pdb
REMARK  6 active torsions:
REMARK  status: ('A' for Active; 'I' for Inactive)
REMARK    1  A    between atoms: C4_6  and  C5_7
REMARK    2  A    between atoms: C5_7  and  N2_8
REMARK    3  A    between atoms: N2_8  and  C6_9
REMARK    4  A    between atoms: C9_12  and  S1_15
REMARK    5  A    between atoms: S1_15  and  N3_18
REMARK    6  A    between atoms: N3_18  and  C12_19
REMARK                            x       y       z     vdW  Elec       q    Type
REMARK                         _______ _______ _______ _____ _____    ______ ____
ROOT
ATOM      1  C6  UNL     1       4.803  13.558  18.177  0.00  0.00    +0.027 A 
ATOM      2  C7  UNL     1       4.381  14.876  18.417  0.00  0.00    +0.025 A 
ATOM      3  C8  UNL     1       4.362  15.389  19.717  0.00  0.00    +0.030 A 
ATOM      4  C9  UNL     1       4.758  14.591  20.796  0.00  0.00    +0.109 A 
ATOM      5  C10 UNL     1       5.185  13.278  20.565  0.00  0.00    +0.030 A 
ATOM      6  C11 UNL     1       5.205  12.762  19.265  0.00  0.00    +0.025 A 
ENDROOT
BRANCH   4   7
ATOM      7  S1  UNL     1       4.717  15.243  22.431  0.00  0.00    +0.073 S 
ATOM      8  O2  UNL     1       5.520  14.350  23.335  0.00  0.00    -0.150 OA
ATOM      9  O3  UNL     1       3.304  15.312  22.936  0.00  0.00    -0.150 OA
BRANCH   7  10
ATOM     10  N3  UNL     1       5.398  16.837  22.445  0.00  0.00    -0.199 N 
ATOM     11  H8  UNL     1       4.774  17.638  22.692  0.00  0.00    +0.175 HD
BRANCH  10  12
ATOM     12  C12 UNL     1       6.781  17.072  22.154  0.00  0.00    +0.138 A 
ATOM     13  C13 UNL     1       7.718  17.136  23.194  0.00  0.00    +0.045 A 
ATOM     14  C14 UNL     1       9.063  17.358  22.891  0.00  0.00    +0.005 A 
ATOM     15  C15 UNL     1       9.461  17.513  21.563  0.00  0.00    +0.020 A 
ATOM     16  C16 UNL     1       8.502  17.444  20.551  0.00  0.00    +0.113 A 
ATOM     17  N4  UNL     1       7.197  17.228  20.865  0.00  0.00    -0.239 NA
ENDBRANCH  10  12
ENDBRANCH   7  10
ENDBRANCH   4   7
BRANCH   1  18
ATOM     18  N2  UNL     1       4.814  13.059  16.826  0.00  0.00    -0.340 N 
ATOM     19  H3  UNL     1       3.918  13.077  16.287  0.00  0.00    +0.146 HD
BRANCH  18  20
ATOM     20  C5  UNL     1       6.023  12.560  16.166  0.00  0.00    +0.143 C 
BRANCH  20  26
ATOM     21  O1  UNL     1       8.119  14.337  17.629  0.00  0.00    -0.268 OA
ATOM     22  C1  UNL     1       7.844  14.472  16.408  0.00  0.00    +0.266 C 
ATOM     23  N1  UNL     1       8.472  15.422  15.553  0.00  0.00    -0.176 NA
ATOM     24  C2  UNL     1       7.907  15.207  14.407  0.00  0.00    +0.066 A 
ATOM     25  C3  UNL     1       6.955  14.191  14.432  0.00  0.00    +0.024 A 
ATOM     26  C4  UNL     1       6.863  13.698  15.663  0.00  0.00    +0.043 C 
ATOM     27  C17 UNL     1       6.291  13.847  13.252  0.00  0.00    +0.048 A 
ATOM     28  S2  UNL     1       5.119  12.683  12.942  0.00  0.00    -0.075 S 
ATOM     29  C18 UNL     1       5.023  13.092  11.303  0.00  0.00    +0.157 A 
ATOM     30  N5  UNL     1       5.869  14.102  10.984  0.00  0.00    -0.247 NA
ATOM     31  C19 UNL     1       6.573  14.521  12.067  0.00  0.00    +0.079 A 
ATOM     32  C20 UNL     1       7.528  15.552  12.036  0.00  0.00    +0.031 A 
ATOM     33  C21 UNL     1       8.207  15.902  13.222  0.00  0.00    +0.028 A 
ENDBRANCH  20  26
ENDBRANCH  18  20
ENDBRANCH   1  18
TORSDOF 6
ENDMDL
MODEL 7
REMARK minimizedAffinity -6.20291615
REMARK minimizedRMSD -1
REMARK  Name = /home/tchapet/Post-Doc/ARTICLES-DOSSIERS-DES-ARTICLES-EN-REDACTION/NOUVELS-AXES-DE-RECHERCHE-A-REGARDER-URGEMMENT/ARTICLES-EN-REDACTIONS/ARTICLE_MVOTO/Paper2_Sensors_ActuatorsB/docking_rerun/ligands/1712.pdb
REMARK  6 active torsions:
REMARK  status: ('A' for Active; 'I' for Inactive)
REMARK    1  A    between atoms: C4_6  and  C5_7
REMARK    2  A    between atoms: C5_7  and  N2_8
REMARK    3  A    between atoms: N2_8  and  C6_9
REMARK    4  A    between atoms: C9_12  and  S1_15
REMARK    5  A    between atoms: S1_15  and  N3_18
REMARK    6  A    between atoms: N3_18  and  C12_19
REMARK                            x       y       z     vdW  Elec       q    Type
REMARK                         _______ _______ _______ _____ _____    ______ ____
ROOT
ATOM      1  C6  UNL     1       8.289  17.979  24.148  0.00  0.00    +0.027 A 
ATOM      2  C7  UNL     1       6.923  17.950  23.824  0.00  0.00    +0.025 A 
ATOM      3  C8  UNL     1       6.501  17.516  22.564  0.00  0.00    +0.030 A 
ATOM      4  C9  UNL     1       7.439  17.111  21.607  0.00  0.00    +0.109 A 
ATOM      5  C10 UNL     1       8.803  17.134  21.922  0.00  0.00    +0.030 A 
ATOM      6  C11 UNL     1       9.227  17.567  23.183  0.00  0.00    +0.025 A 
ENDROOT
BRANCH   4   7
ATOM      7  S1  UNL     1       6.899  16.580  20.017  0.00  0.00    +0.073 S 
ATOM      8  O2  UNL     1       7.355  17.575  18.987  0.00  0.00    -0.150 OA
ATOM      9  O3  UNL     1       5.400  16.481  19.975  0.00  0.00    -0.150 OA
BRANCH   7  10
ATOM     10  N3  UNL     1       7.575  15.026  19.657  0.00  0.00    -0.199 N 
ATOM     11  H8  UNL     1       8.509  14.788  20.062  0.00  0.00    +0.175 HD
BRANCH  10  12
ATOM     12  C12 UNL     1       6.882  14.067  18.849  0.00  0.00    +0.138 A 
ATOM     13  C13 UNL     1       6.116  13.061  19.452  0.00  0.00    +0.045 A 
ATOM     14  C14 UNL     1       5.440  12.140  18.649  0.00  0.00    +0.005 A 
ATOM     15  C15 UNL     1       5.533  12.228  17.259  0.00  0.00    +0.020 A 
ATOM     16  C16 UNL     1       6.306  13.243  16.691  0.00  0.00    +0.113 A 
ATOM     17  N4  UNL     1       6.957  14.130  17.489  0.00  0.00    -0.239 NA
ENDBRANCH  10  12
ENDBRANCH   7  10
ENDBRANCH   4   7
BRANCH   1  18
ATOM     18  N2  UNL     1       8.692  18.428  25.455  0.00  0.00    -0.340 N 
ATOM     19  H3  UNL     1       9.715  18.538  25.644  0.00  0.00    +0.146 HD
BRANCH  18  20
ATOM     20  C5  UNL     1       7.739  18.767  26.515  0.00  0.00    +0.143 C 
BRANCH  20  26
ATOM     21  O1  UNL     1       9.929  20.974  26.351  0.00  0.00    -0.268 OA
ATOM     22  C1  UNL     1       9.416  20.602  27.439  0.00  0.00    +0.266 C 
ATOM     23  N1  UNL     1       9.749  21.158  28.706  0.00  0.00    -0.176 NA
ATOM     24  C2  UNL     1       8.990  20.503  29.527  0.00  0.00    +0.066 A 
ATOM     25  C3  UNL     1       8.179  19.556  28.906  0.00  0.00    +0.024 A 
ATOM     26  C4  UNL     1       8.408  19.564  27.597  0.00  0.00    +0.043 C 
ATOM     27  C17 UNL     1       7.297  18.799  29.680  0.00  0.00    +0.048 A 
ATOM     28  S2  UNL     1       6.193  17.606  29.251  0.00  0.00    -0.075 S 
ATOM     29  C18 UNL     1       5.687  17.379  30.850  0.00  0.00    +0.157 A 
ATOM     30  N5  UNL     1       6.343  18.197  31.709  0.00  0.00    -0.247 NA
ATOM     31  C19 UNL     1       7.237  18.986  31.058  0.00  0.00    +0.079 A 
ATOM     32  C20 UNL     1       8.058  19.935  31.692  0.00  0.00    +0.031 A 
ATOM     33  C21 UNL     1       8.948  20.707  30.916  0.00  0.00    +0.028 A 
ENDBRANCH  20  26
ENDBRANCH  18  20
ENDBRANCH   1  18
TORSDOF 6
ENDMDL
MODEL 8
REMARK minimizedAffinity -6.1244545
REMARK minimizedRMSD -1
REMARK  Name = /home/tchapet/Post-Doc/ARTICLES-DOSSIERS-DES-ARTICLES-EN-REDACTION/NOUVELS-AXES-DE-RECHERCHE-A-REGARDER-URGEMMENT/ARTICLES-EN-REDACTIONS/ARTICLE_MVOTO/Paper2_Sensors_ActuatorsB/docking_rerun/ligands/1712.pdb
REMARK  6 active torsions:
REMARK  status: ('A' for Active; 'I' for Inactive)
REMARK    1  A    between atoms: C4_6  and  C5_7
REMARK    2  A    between atoms: C5_7  and  N2_8
REMARK    3  A    between atoms: N2_8  and  C6_9
REMARK    4  A    between atoms: C9_12  and  S1_15
REMARK    5  A    between atoms: S1_15  and  N3_18
REMARK    6  A    between atoms: N3_18  and  C12_19
REMARK                            x       y       z     vdW  Elec       q    Type
REMARK                         _______ _______ _______ _____ _____    ______ ____
ROOT
ATOM      1  C6  UNL     1       6.278  18.360  24.012  0.00  0.00    +0.027 A 
ATOM      2  C7  UNL     1       5.488  18.742  25.108  0.00  0.00    +0.025 A 
ATOM      3  C8  UNL     1       6.083  19.131  26.312  0.00  0.00    +0.030 A 
ATOM      4  C9  UNL     1       7.477  19.138  26.438  0.00  0.00    +0.109 A 
ATOM      5  C10 UNL     1       8.273  18.763  25.349  0.00  0.00    +0.030 A 
ATOM      6  C11 UNL     1       7.679  18.374  24.144  0.00  0.00    +0.025 A 
ENDROOT
BRANCH   4   7
ATOM      7  S1  UNL     1       8.217  19.616  27.963  0.00  0.00    +0.073 S 
ATOM      8  O2  UNL     1       7.962  18.547  28.988  0.00  0.00    -0.150 OA
ATOM      9  O3  UNL     1       7.635  20.914  28.449  0.00  0.00    -0.150 OA
BRANCH   7  10
ATOM     10  N3  UNL     1       9.926  19.813  27.749  0.00  0.00    -0.199 N 
ATOM     11  H8  UNL     1      10.471  19.009  27.363  0.00  0.00    +0.175 HD
BRANCH  10  12
ATOM     12  C12 UNL     1      10.592  21.042  28.062  0.00  0.00    +0.138 A 
ATOM     13  C13 UNL     1      11.079  21.860  27.034  0.00  0.00    +0.045 A 
ATOM     14  C14 UNL     1      11.718  23.059  27.357  0.00  0.00    +0.005 A 
ATOM     15  C15 UNL     1      11.866  23.431  28.694  0.00  0.00    +0.020 A 
ATOM     16  C16 UNL     1      11.370  22.592  29.693  0.00  0.00    +0.113 A 
ATOM     17  N4  UNL     1      10.751  21.428  29.360  0.00  0.00    -0.239 NA
ENDBRANCH  10  12
ENDBRANCH   7  10
ENDBRANCH   4   7
BRANCH   1  18
ATOM     18  N2  UNL     1       5.635  17.967  22.785  0.00  0.00    -0.340 N 
ATOM     19  H3  UNL     1       4.637  18.248  22.641  0.00  0.00    +0.146 HD
BRANCH  18  20
ATOM     20  C5  UNL     1       6.319  17.226  21.723  0.00  0.00    +0.143 C 
BRANCH  20  26
ATOM     21  O1  UNL     1       4.375  15.634  23.561  0.00  0.00    -0.268 OA
ATOM     22  C1  UNL     1       4.809  15.178  22.471  0.00  0.00    +0.266 C 
ATOM     23  N1  UNL     1       4.445  13.909  21.939  0.00  0.00    -0.176 NA
ATOM     24  C2  UNL     1       5.098  13.857  20.822  0.00  0.00    +0.066 A 
ATOM     25  C3  UNL     1       5.867  14.991  20.568  0.00  0.00    +0.024 A 
ATOM     26  C4  UNL     1       5.735  15.852  21.572  0.00  0.00    +0.043 C 
ATOM     27  C17 UNL     1       6.602  15.067  19.383  0.00  0.00    +0.048 A 
ATOM     28  S2  UNL     1       7.602  16.275  18.778  0.00  0.00    -0.075 S 
ATOM     29  C18 UNL     1       7.953  15.400  17.373  0.00  0.00    +0.157 A 
ATOM     30  N5  UNL     1       7.320  14.201  17.353  0.00  0.00    -0.247 NA
ATOM     31  C19 UNL     1       6.570  14.017  18.470  0.00  0.00    +0.079 A 
ATOM     32  C20 UNL     1       5.802  12.867  18.723  0.00  0.00    +0.031 A 
ATOM     33  C21 UNL     1       5.053  12.785  19.915  0.00  0.00    +0.028 A 
ENDBRANCH  20  26
ENDBRANCH  18  20
ENDBRANCH   1  18
TORSDOF 6
ENDMDL
MODEL 9
REMARK minimizedAffinity -6.11707401
REMARK minimizedRMSD -1
REMARK  Name = /home/tchapet/Post-Doc/ARTICLES-DOSSIERS-DES-ARTICLES-EN-REDACTION/NOUVELS-AXES-DE-RECHERCHE-A-REGARDER-URGEMMENT/ARTICLES-EN-REDACTIONS/ARTICLE_MVOTO/Paper2_Sensors_ActuatorsB/docking_rerun/ligands/1712.pdb
REMARK  6 active torsions:
REMARK  status: ('A' for Active; 'I' for Inactive)
REMARK    1  A    between atoms: C4_6  and  C5_7
REMARK    2  A    between atoms: C5_7  and  N2_8
REMARK    3  A    between atoms: N2_8  and  C6_9
REMARK    4  A    between atoms: C9_12  and  S1_15
REMARK    5  A    between atoms: S1_15  and  N3_18
REMARK    6  A    between atoms: N3_18  and  C12_19
REMARK                            x       y       z     vdW  Elec       q    Type
REMARK                         _______ _______ _______ _____ _____    ______ ____
ROOT
ATOM      1  C6  UNL     1       5.702  -6.042  32.240  0.00  0.00    +0.027 A 
ATOM      2  C7  UNL     1       5.144  -6.763  33.307  0.00  0.00    +0.025 A 
ATOM      3  C8  UNL     1       5.135  -6.228  34.598  0.00  0.00    +0.030 A 
ATOM      4  C9  UNL     1       5.689  -4.966  34.842  0.00  0.00    +0.109 A 
ATOM      5  C10 UNL     1       6.244  -4.238  33.782  0.00  0.00    +0.030 A 
ATOM      6  C11 UNL     1       6.253  -4.772  32.490  0.00  0.00    +0.025 A 
ENDROOT
BRANCH   4   7
ATOM      7  S1  UNL     1       5.686  -4.306  36.474  0.00  0.00    +0.073 S 
ATOM      8  O2  UNL     1       4.395  -4.675  37.149  0.00  0.00    -0.150 OA
ATOM      9  O3  UNL     1       5.811  -2.809  36.438  0.00  0.00    -0.150 OA
BRANCH   7  10
ATOM     10  N3  UNL     1       7.014  -4.960  37.374  0.00  0.00    -0.199 N 
ATOM     11  H8  UNL     1       7.937  -4.473  37.318  0.00  0.00    +0.175 HD
BRANCH  10  12
ATOM     12  C12 UNL     1       6.870  -6.121  38.201  0.00  0.00    +0.138 A 
ATOM     13  C13 UNL     1       7.168  -7.391  37.689  0.00  0.00    +0.045 A 
ATOM     14  C14 UNL     1       7.029  -8.512  38.511  0.00  0.00    +0.005 A 
ATOM     15  C15 UNL     1       6.597  -8.358  39.829  0.00  0.00    +0.020 A 
ATOM     16  C16 UNL     1       6.308  -7.079  40.307  0.00  0.00    +0.113 A 
ATOM     17  N4  UNL     1       6.448  -6.000  39.492  0.00  0.00    -0.239 NA
ENDBRANCH  10  12
ENDBRANCH   7  10
ENDBRANCH   4   7
BRANCH   1  18
ATOM     18  N2  UNL     1       5.693  -6.620  30.921  0.00  0.00    -0.340 N 
ATOM     19  H3  UNL     1       5.019  -7.397  30.728  0.00  0.00    +0.146 HD
BRANCH  18  20
ATOM     20  C5  UNL     1       6.558  -6.152  29.835  0.00  0.00    +0.143 C 
BRANCH  20  26
ATOM     21  O1  UNL     1       4.374  -3.946  29.591  0.00  0.00    -0.268 OA
ATOM     22  C1  UNL     1       4.745  -4.649  28.615  0.00  0.00    +0.266 C 
ATOM     23  N1  UNL     1       4.239  -4.502  27.292  0.00  0.00    -0.176 NA
ATOM     24  C2  UNL     1       4.894  -5.397  26.623  0.00  0.00    +0.066 A 
ATOM     25  C3  UNL     1       5.795  -6.127  27.396  0.00  0.00    +0.024 A 
ATOM     26  C4  UNL     1       5.740  -5.710  28.656  0.00  0.00    +0.043 C 
ATOM     27  C17 UNL     1       6.579  -7.108  26.785  0.00  0.00    +0.048 A 
ATOM     28  S2  UNL     1       7.749  -8.139  27.414  0.00  0.00    -0.075 S 
ATOM     29  C18 UNL     1       8.044  -8.861  25.913  0.00  0.00    +0.157 A 
ATOM     30  N5  UNL     1       7.268  -8.331  24.936  0.00  0.00    -0.247 NA
ATOM     31  C19 UNL     1       6.454  -7.358  25.421  0.00  0.00    +0.079 A 
ATOM     32  C20 UNL     1       5.542  -6.629  24.638  0.00  0.00    +0.031 A 
ATOM     33  C21 UNL     1       4.751  -5.633  25.245  0.00  0.00    +0.028 A 
ENDBRANCH  20  26
ENDBRANCH  18  20
ENDBRANCH   1  18
TORSDOF 6
ENDMDL
