MODEL 1
REMARK minimizedAffinity -6.98789263
REMARK minimizedRMSD -1
REMARK  Name = /home/tchapet/Post-Doc/ARTICLES-DOSSIERS-DES-ARTICLES-EN-REDACTION/NOUVELS-AXES-DE-RECHERCHE-A-REGARDER-URGEMMENT/ARTICLES-EN-REDACTIONS/ARTICLE_MVOTO/Paper2_JCIM/docking_rerun/ligands/17574.pdb
REMARK  8 active torsions:
REMARK  status: ('A' for Active; 'I' for Inactive)
REMARK    1  A    between atoms: C1_1  and  C2_2
REMARK    2  A    between atoms: N1_4  and  C3_5
REMARK    3  A    between atoms: N1_4  and  C23_33
REMARK    4  A    between atoms: C6_8  and  N2_11
REMARK    5  A    between atoms: N2_11  and  C9_12
REMARK    6  A    between atoms: C11_14  and  S1_29
REMARK    7  A    between atoms: C12_15  and  N3_28
REMARK    8  A    between atoms: S1_29  and  O6_32
REMARK                            x       y       z     vdW  Elec       q    Type
REMARK                         _______ _______ _______ _____ _____    ______ ____
ROOT
ATOM      1  C9  UNL     1      19.633   0.240   7.460  0.00  0.00    +0.045 A 
ATOM      2  C10 UNL     1      18.883   0.721   6.388  0.00  0.00    +0.055 A 
ATOM      3  C11 UNL     1      17.638   0.178   6.075  0.00  0.00    +0.140 A 
ATOM      4  C12 UNL     1      17.139  -0.911   6.824  0.00  0.00    +0.064 A 
ATOM      5  C13 UNL     1      17.915  -1.447   7.891  0.00  0.00    +0.057 A 
ATOM      6  C14 UNL     1      19.125  -0.809   8.266  0.00  0.00    +0.056 A 
ATOM      7  C15 UNL     1      19.812  -1.228   9.523  0.00  0.00    +0.196 C 
ATOM      8  O2  UNL     1      20.756  -0.538   9.996  0.00  0.00    -0.287 OA
ATOM      9  C16 UNL     1      19.352  -2.420  10.267  0.00  0.00    +0.033 A 
ATOM     10  C17 UNL     1      20.025  -2.843  11.429  0.00  0.00    +0.012 A 
ATOM     11  C18 UNL     1      19.587  -3.968  12.130  0.00  0.00    +0.001 A 
ATOM     12  C19 UNL     1      18.478  -4.683  11.680  0.00  0.00    +0.001 A 
ATOM     13  C20 UNL     1      17.803  -4.275  10.528  0.00  0.00    +0.012 A 
ATOM     14  C21 UNL     1      18.233  -3.140   9.814  0.00  0.00    +0.033 A 
ATOM     15  C22 UNL     1      17.527  -2.711   8.586  0.00  0.00    +0.196 C 
ATOM     16  O3  UNL     1      16.646  -3.468   8.096  0.00  0.00    -0.287 OA
ENDROOT
BRANCH   4  17
ATOM     17  N3  UNL     1      15.828  -1.423   6.542  0.00  0.00    -0.356 N 
ATOM     18  H14 UNL     1      15.426  -1.404   5.580  0.00  0.00    +0.142 HD
ATOM     19  H15 UNL     1      15.194  -1.721   7.315  0.00  0.00    +0.142 HD
ENDBRANCH   4  17
BRANCH   3  20
ATOM     20  S1  UNL     1      16.713   0.899   4.748  0.00  0.00    +0.111 S 
ATOM     21  O4  UNL     1      17.411   2.142   4.271  0.00  0.00    -0.142 OA
ATOM     22  O5  UNL     1      16.598  -0.089   3.622  0.00  0.00    -0.142 OA
BRANCH  20  23
ATOM     23  O6  UNL     1      15.166   1.305   5.270  0.00  0.00    -0.250 OA
ATOM     24  H16 UNL     1      14.727   1.708   4.478  0.00  0.00    +0.245 HD
ENDBRANCH  20  23
ENDBRANCH   3  20
BRANCH   1  25
ATOM     25  N2  UNL     1      20.925   0.821   7.691  0.00  0.00    -0.314 N 
ATOM     26  H8  UNL     1      21.286   0.812   8.672  0.00  0.00    +0.152 HD
BRANCH  25  30
ATOM     27  C3  UNL     1      23.029   3.148   4.808  0.00  0.00    +0.036 A 
ATOM     28  C4  UNL     1      22.419   3.754   5.916  0.00  0.00    +0.025 A 
ATOM     29  C5  UNL     1      21.728   2.983   6.853  0.00  0.00    +0.025 A 
ATOM     30  C6  UNL     1      21.637   1.591   6.704  0.00  0.00    +0.031 A 
ATOM     31  C7  UNL     1      22.244   0.983   5.588  0.00  0.00    +0.025 A 
ATOM     32  C8  UNL     1      22.937   1.755   4.652  0.00  0.00    +0.025 A 
BRANCH  27  36
ATOM     33  C1  UNL     1      23.745   5.514   1.813  0.00  0.00    +0.109 C 
ATOM     34  C2  UNL     1      23.044   4.595   2.768  0.00  0.00    +0.216 C 
ATOM     35  O1  UNL     1      21.810   4.387   2.606  0.00  0.00    -0.276 OA
ATOM     36  N1  UNL     1      23.751   3.944   3.847  0.00  0.00    -0.275 N 
ATOM     37  C23 UNL     1      25.217   3.978   3.903  0.00  0.00    +0.138 C 
ENDBRANCH  27  36
ENDBRANCH  25  30
ENDBRANCH   1  25
TORSDOF 6
ENDMDL
MODEL 2
REMARK minimizedAffinity -6.93095541
REMARK minimizedRMSD -1
REMARK  Name = /home/tchapet/Post-Doc/ARTICLES-DOSSIERS-DES-ARTICLES-EN-REDACTION/NOUVELS-AXES-DE-RECHERCHE-A-REGARDER-URGEMMENT/ARTICLES-EN-REDACTIONS/ARTICLE_MVOTO/Paper2_JCIM/docking_rerun/ligands/17574.pdb
REMARK  8 active torsions:
REMARK  status: ('A' for Active; 'I' for Inactive)
REMARK    1  A    between atoms: C1_1  and  C2_2
REMARK    2  A    between atoms: N1_4  and  C3_5
REMARK    3  A    between atoms: N1_4  and  C23_33
REMARK    4  A    between atoms: C6_8  and  N2_11
REMARK    5  A    between atoms: N2_11  and  C9_12
REMARK    6  A    between atoms: C11_14  and  S1_29
REMARK    7  A    between atoms: C12_15  and  N3_28
REMARK    8  A    between atoms: S1_29  and  O6_32
REMARK                            x       y       z     vdW  Elec       q    Type
REMARK                         _______ _______ _______ _____ _____    ______ ____
ROOT
ATOM      1  C9  UNL     1      33.845   9.238  28.723  0.00  0.00    +0.045 A 
ATOM      2  C10 UNL     1      33.973  10.595  29.017  0.00  0.00    +0.055 A 
ATOM      3  C11 UNL     1      34.799  11.423  28.259  0.00  0.00    +0.140 A 
ATOM      4  C12 UNL     1      35.559  10.879  27.201  0.00  0.00    +0.064 A 
ATOM      5  C13 UNL     1      35.478   9.485  26.919  0.00  0.00    +0.057 A 
ATOM      6  C14 UNL     1      34.548   8.681  27.626  0.00  0.00    +0.056 A 
ATOM      7  C15 UNL     1      34.300   7.281  27.172  0.00  0.00    +0.196 C 
ATOM      8  O2  UNL     1      33.328   6.623  27.634  0.00  0.00    -0.287 OA
ATOM      9  C16 UNL     1      35.147   6.671  26.126  0.00  0.00    +0.033 A 
ATOM     10  C17 UNL     1      34.943   5.337  25.726  0.00  0.00    +0.012 A 
ATOM     11  C18 UNL     1      35.745   4.764  24.737  0.00  0.00    +0.001 A 
ATOM     12  C19 UNL     1      36.758   5.513  24.139  0.00  0.00    +0.001 A 
ATOM     13  C20 UNL     1      36.972   6.837  24.527  0.00  0.00    +0.012 A 
ATOM     14  C21 UNL     1      36.168   7.427  25.522  0.00  0.00    +0.033 A 
ATOM     15  C22 UNL     1      36.398   8.826  25.944  0.00  0.00    +0.196 C 
ATOM     16  O3  UNL     1      37.426   9.425  25.527  0.00  0.00    -0.287 OA
ENDROOT
BRANCH   4  17
ATOM     17  N3  UNL     1      36.355  11.747  26.380  0.00  0.00    -0.356 N 
ATOM     18  H14 UNL     1      36.795  12.611  26.762  0.00  0.00    +0.142 HD
ATOM     19  H15 UNL     1      36.418  11.598  25.350  0.00  0.00    +0.142 HD
ENDBRANCH   4  17
BRANCH   3  20
ATOM     20  S1  UNL     1      34.845  13.150  28.647  0.00  0.00    +0.111 S 
ATOM     21  O4  UNL     1      33.834  13.448  29.720  0.00  0.00    -0.142 OA
ATOM     22  O5  UNL     1      36.221  13.523  29.122  0.00  0.00    -0.142 OA
BRANCH  20  23
ATOM     23  O6  UNL     1      34.480  14.064  27.282  0.00  0.00    -0.250 OA
ATOM     24  H16 UNL     1      34.516  15.006  27.588  0.00  0.00    +0.245 HD
ENDBRANCH  20  23
ENDBRANCH   3  20
BRANCH   1  25
ATOM     25  N2  UNL     1      33.010   8.441  29.577  0.00  0.00    -0.314 N 
ATOM     26  H8  UNL     1      31.998   8.372  29.328  0.00  0.00    +0.152 HD
BRANCH  25  30
ATOM     27  C3  UNL     1      34.345   6.932  33.332  0.00  0.00    +0.036 A 
ATOM     28  C4  UNL     1      35.245   7.523  32.433  0.00  0.00    +0.025 A 
ATOM     29  C5  UNL     1      34.798   8.010  31.202  0.00  0.00    +0.025 A 
ATOM     30  C6  UNL     1      33.443   7.922  30.849  0.00  0.00    +0.031 A 
ATOM     31  C7  UNL     1      32.541   7.324  31.750  0.00  0.00    +0.025 A 
ATOM     32  C8  UNL     1      32.988   6.838  32.981  0.00  0.00    +0.025 A 
BRANCH  27  36
ATOM     33  C1  UNL     1      35.200   6.810  37.118  0.00  0.00    +0.109 C 
ATOM     34  C2  UNL     1      34.828   7.315  35.756  0.00  0.00    +0.216 C 
ATOM     35  O1  UNL     1      34.540   8.536  35.625  0.00  0.00    -0.276 OA
ATOM     36  N1  UNL     1      34.805   6.439  34.606  0.00  0.00    -0.275 N 
ATOM     37  C23 UNL     1      35.368   5.088  34.690  0.00  0.00    +0.138 C 
ENDBRANCH  27  36
ENDBRANCH  25  30
ENDBRANCH   1  25
TORSDOF 6
ENDMDL
MODEL 3
REMARK minimizedAffinity -6.85190916
REMARK minimizedRMSD -1
REMARK  Name = /home/tchapet/Post-Doc/ARTICLES-DOSSIERS-DES-ARTICLES-EN-REDACTION/NOUVELS-AXES-DE-RECHERCHE-A-REGARDER-URGEMMENT/ARTICLES-EN-REDACTIONS/ARTICLE_MVOTO/Paper2_JCIM/docking_rerun/ligands/17574.pdb
REMARK  8 active torsions:
REMARK  status: ('A' for Active; 'I' for Inactive)
REMARK    1  A    between atoms: C1_1  and  C2_2
REMARK    2  A    between atoms: N1_4  and  C3_5
REMARK    3  A    between atoms: N1_4  and  C23_33
REMARK    4  A    between atoms: C6_8  and  N2_11
REMARK    5  A    between atoms: N2_11  and  C9_12
REMARK    6  A    between atoms: C11_14  and  S1_29
REMARK    7  A    between atoms: C12_15  and  N3_28
REMARK    8  A    between atoms: S1_29  and  O6_32
REMARK                            x       y       z     vdW  Elec       q    Type
REMARK                         _______ _______ _______ _____ _____    ______ ____
ROOT
ATOM      1  C9  UNL     1       5.824  12.573  17.196  0.00  0.00    +0.045 A 
ATOM      2  C10 UNL     1       4.830  11.612  17.020  0.00  0.00    +0.055 A 
ATOM      3  C11 UNL     1       4.226  11.415  15.780  0.00  0.00    +0.140 A 
ATOM      4  C12 UNL     1       4.588  12.232  14.686  0.00  0.00    +0.064 A 
ATOM      5  C13 UNL     1       5.566  13.252  14.860  0.00  0.00    +0.057 A 
ATOM      6  C14 UNL     1       6.251  13.360  16.098  0.00  0.00    +0.056 A 
ATOM      7  C15 UNL     1       7.429  14.270  16.204  0.00  0.00    +0.196 C 
ATOM      8  O2  UNL     1       8.186  14.221  17.211  0.00  0.00    -0.287 OA
ATOM      9  C16 UNL     1       7.765  15.193  15.099  0.00  0.00    +0.033 A 
ATOM     10  C17 UNL     1       8.851  16.082  15.212  0.00  0.00    +0.012 A 
ATOM     11  C18 UNL     1       9.166  16.951  14.166  0.00  0.00    +0.001 A 
ATOM     12  C19 UNL     1       8.403  16.945  12.999  0.00  0.00    +0.001 A 
ATOM     13  C20 UNL     1       7.322  16.069  12.874  0.00  0.00    +0.012 A 
ATOM     14  C21 UNL     1       6.996  15.185  13.921  0.00  0.00    +0.033 A 
ATOM     15  C22 UNL     1       5.846  14.263  13.797  0.00  0.00    +0.196 C 
ATOM     16  O3  UNL     1       5.062  14.398  12.819  0.00  0.00    -0.287 OA
ENDROOT
BRANCH   4  17
ATOM     17  N3  UNL     1       4.014  11.982  13.394  0.00  0.00    -0.356 N 
ATOM     18  H14 UNL     1       3.048  11.605  13.286  0.00  0.00    +0.142 HD
ATOM     19  H15 UNL     1       4.591  12.060  12.528  0.00  0.00    +0.142 HD
ENDBRANCH   4  17
BRANCH   3  20
ATOM     20  S1  UNL     1       3.029  10.120  15.620  0.00  0.00    +0.111 S 
ATOM     21  O4  UNL     1       1.648  10.697  15.757  0.00  0.00    -0.142 OA
ATOM     22  O5  UNL     1       3.179   9.460  14.278  0.00  0.00    -0.142 OA
BRANCH  20  23
ATOM     23  O6  UNL     1       3.261   8.962  16.819  0.00  0.00    -0.250 OA
ATOM     24  H16 UNL     1       2.550   8.289  16.665  0.00  0.00    +0.245 HD
ENDBRANCH  20  23
ENDBRANCH   3  20
BRANCH   1  25
ATOM     25  N2  UNL     1       6.366  12.746  18.514  0.00  0.00    -0.314 N 
ATOM     26  H8  UNL     1       7.117  12.083  18.814  0.00  0.00    +0.152 HD
BRANCH  25  30
ATOM     27  C3  UNL     1       4.670  15.304  21.469  0.00  0.00    +0.036 A 
ATOM     28  C4  UNL     1       4.776  13.923  21.688  0.00  0.00    +0.025 A 
ATOM     29  C5  UNL     1       5.329  13.092  20.711  0.00  0.00    +0.025 A 
ATOM     30  C6  UNL     1       5.792  13.627  19.499  0.00  0.00    +0.031 A 
ATOM     31  C7  UNL     1       5.680  15.012  19.277  0.00  0.00    +0.025 A 
ATOM     32  C8  UNL     1       5.128  15.843  20.256  0.00  0.00    +0.025 A 
BRANCH  27  36
ATOM     33  C1  UNL     1       4.421  17.962  24.290  0.00  0.00    +0.109 C 
ATOM     34  C2  UNL     1       4.974  16.981  23.300  0.00  0.00    +0.216 C 
ATOM     35  O1  UNL     1       6.228  16.873  23.196  0.00  0.00    -0.276 OA
ATOM     36  N1  UNL     1       4.108  16.162  22.483  0.00  0.00    -0.275 N 
ATOM     37  C23 UNL     1       2.669  16.096  22.760  0.00  0.00    +0.138 C 
ENDBRANCH  27  36
ENDBRANCH  25  30
ENDBRANCH   1  25
TORSDOF 6
ENDMDL
MODEL 4
REMARK minimizedAffinity -6.83260012
REMARK minimizedRMSD -1
REMARK  Name = /home/tchapet/Post-Doc/ARTICLES-DOSSIERS-DES-ARTICLES-EN-REDACTION/NOUVELS-AXES-DE-RECHERCHE-A-REGARDER-URGEMMENT/ARTICLES-EN-REDACTIONS/ARTICLE_MVOTO/Paper2_JCIM/docking_rerun/ligands/17574.pdb
REMARK  8 active torsions:
REMARK  status: ('A' for Active; 'I' for Inactive)
REMARK    1  A    between atoms: C1_1  and  C2_2
REMARK    2  A    between atoms: N1_4  and  C3_5
REMARK    3  A    between atoms: N1_4  and  C23_33
REMARK    4  A    between atoms: C6_8  and  N2_11
REMARK    5  A    between atoms: N2_11  and  C9_12
REMARK    6  A    between atoms: C11_14  and  S1_29
REMARK    7  A    between atoms: C12_15  and  N3_28
REMARK    8  A    between atoms: S1_29  and  O6_32
REMARK                            x       y       z     vdW  Elec       q    Type
REMARK                         _______ _______ _______ _____ _____    ______ ____
ROOT
ATOM      1  C9  UNL     1       6.586  14.085  16.838  0.00  0.00    +0.045 A 
ATOM      2  C10 UNL     1       5.774  13.130  16.230  0.00  0.00    +0.055 A 
ATOM      3  C11 UNL     1       4.715  12.540  16.917  0.00  0.00    +0.140 A 
ATOM      4  C12 UNL     1       4.480  12.877  18.269  0.00  0.00    +0.064 A 
ATOM      5  C13 UNL     1       5.331  13.815  18.919  0.00  0.00    +0.057 A 
ATOM      6  C14 UNL     1       6.331  14.488  18.172  0.00  0.00    +0.056 A 
ATOM      7  C15 UNL     1       7.063  15.631  18.794  0.00  0.00    +0.196 C 
ATOM      8  O2  UNL     1       7.789  16.384  18.089  0.00  0.00    -0.287 OA
ATOM      9  C16 UNL     1       6.892  15.938  20.229  0.00  0.00    +0.033 A 
ATOM     10  C17 UNL     1       7.612  16.989  20.829  0.00  0.00    +0.012 A 
ATOM     11  C18 UNL     1       7.448  17.276  22.185  0.00  0.00    +0.001 A 
ATOM     12  C19 UNL     1       6.567  16.520  22.957  0.00  0.00    +0.001 A 
ATOM     13  C20 UNL     1       5.847  15.474  22.376  0.00  0.00    +0.012 A 
ATOM     14  C21 UNL     1       6.002  15.176  21.008  0.00  0.00    +0.033 A 
ATOM     15  C22 UNL     1       5.250  14.062  20.390  0.00  0.00    +0.196 C 
ATOM     16  O3  UNL     1       4.602  13.279  21.137  0.00  0.00    -0.287 OA
ENDROOT
BRANCH   4  17
ATOM     17  N3  UNL     1       3.348  12.319  18.953  0.00  0.00    -0.356 N 
ATOM     18  H14 UNL     1       2.984  11.368  18.727  0.00  0.00    +0.142 HD
ATOM     19  H15 UNL     1       2.785  12.897  19.613  0.00  0.00    +0.142 HD
ENDBRANCH   4  17
BRANCH   3  20
ATOM     20  S1  UNL     1       3.681  11.393  16.050  0.00  0.00    +0.111 S 
ATOM     21  O4  UNL     1       2.267  11.904  16.040  0.00  0.00    -0.142 OA
ATOM     22  O5  UNL     1       4.178  11.235  14.641  0.00  0.00    -0.142 OA
BRANCH  20  23
ATOM     23  O6  UNL     1       3.715   9.891  16.806  0.00  0.00    -0.250 OA
ATOM     24  H16 UNL     1       3.108   9.320  16.269  0.00  0.00    +0.245 HD
ENDBRANCH  20  23
ENDBRANCH   3  20
BRANCH   1  25
ATOM     25  N2  UNL     1       7.685  14.614  16.079  0.00  0.00    -0.314 N 
ATOM     26  H8  UNL     1       8.628  14.602  16.529  0.00  0.00    +0.152 HD
BRANCH  25  30
ATOM     27  C3  UNL     1       7.165  16.808  12.463  0.00  0.00    +0.036 A 
ATOM     28  C4  UNL     1       6.424  17.126  13.610  0.00  0.00    +0.025 A 
ATOM     29  C5  UNL     1       6.598  16.397  14.790  0.00  0.00    +0.025 A 
ATOM     30  C6  UNL     1       7.520  15.341  14.846  0.00  0.00    +0.031 A 
ATOM     31  C7  UNL     1       8.260  15.019  13.693  0.00  0.00    +0.025 A 
ATOM     32  C8  UNL     1       8.086  15.748  12.514  0.00  0.00    +0.025 A 
BRANCH  27  36
ATOM     33  C1  UNL     1       5.599  18.134   9.166  0.00  0.00    +0.109 C 
ATOM     34  C2  UNL     1       5.870  17.297  10.380  0.00  0.00    +0.216 C 
ATOM     35  O1  UNL     1       5.097  16.331  10.629  0.00  0.00    -0.276 OA
ATOM     36  N1  UNL     1       6.992  17.567  11.249  0.00  0.00    -0.275 N 
ATOM     37  C23 UNL     1       8.032  18.520  10.847  0.00  0.00    +0.138 C 
ENDBRANCH  27  36
ENDBRANCH  25  30
ENDBRANCH   1  25
TORSDOF 6
ENDMDL
MODEL 5
REMARK minimizedAffinity -6.82959223
REMARK minimizedRMSD -1
REMARK  Name = /home/tchapet/Post-Doc/ARTICLES-DOSSIERS-DES-ARTICLES-EN-REDACTION/NOUVELS-AXES-DE-RECHERCHE-A-REGARDER-URGEMMENT/ARTICLES-EN-REDACTIONS/ARTICLE_MVOTO/Paper2_JCIM/docking_rerun/ligands/17574.pdb
REMARK  8 active torsions:
REMARK  status: ('A' for Active; 'I' for Inactive)
REMARK    1  A    between atoms: C1_1  and  C2_2
REMARK    2  A    between atoms: N1_4  and  C3_5
REMARK    3  A    between atoms: N1_4  and  C23_33
REMARK    4  A    between atoms: C6_8  and  N2_11
REMARK    5  A    between atoms: N2_11  and  C9_12
REMARK    6  A    between atoms: C11_14  and  S1_29
REMARK    7  A    between atoms: C12_15  and  N3_28
REMARK    8  A    between atoms: S1_29  and  O6_32
REMARK                            x       y       z     vdW  Elec       q    Type
REMARK                         _______ _______ _______ _____ _____    ______ ____
ROOT
ATOM      1  C9  UNL     1       5.570  15.016  16.858  0.00  0.00    +0.045 A 
ATOM      2  C10 UNL     1       6.194  15.015  15.612  0.00  0.00    +0.055 A 
ATOM      3  C11 UNL     1       7.507  15.456  15.461  0.00  0.00    +0.140 A 
ATOM      4  C12 UNL     1       8.211  15.959  16.577  0.00  0.00    +0.064 A 
ATOM      5  C13 UNL     1       7.571  16.013  17.849  0.00  0.00    +0.057 A 
ATOM      6  C14 UNL     1       6.277  15.454  18.005  0.00  0.00    +0.056 A 
ATOM      7  C15 UNL     1       5.707  15.302  19.376  0.00  0.00    +0.196 C 
ATOM      8  O2  UNL     1       4.668  14.613  19.564  0.00  0.00    -0.287 OA
ATOM      9  C16 UNL     1       6.391  15.901  20.542  0.00  0.00    +0.033 A 
ATOM     10  C17 UNL     1       5.835  15.796  21.831  0.00  0.00    +0.012 A 
ATOM     11  C18 UNL     1       6.484  16.362  22.930  0.00  0.00    +0.001 A 
ATOM     12  C19 UNL     1       7.691  17.038  22.756  0.00  0.00    +0.001 A 
ATOM     13  C20 UNL     1       8.253  17.151  21.482  0.00  0.00    +0.012 A 
ATOM     14  C21 UNL     1       7.609  16.582  20.366  0.00  0.00    +0.033 A 
ATOM     15  C22 UNL     1       8.196  16.708  19.014  0.00  0.00    +0.196 C 
ATOM     16  O3  UNL     1       9.184  17.473  18.849  0.00  0.00    -0.287 OA
ENDROOT
BRANCH   4  17
ATOM     17  N3  UNL     1       9.585  16.349  16.432  0.00  0.00    -0.356 N 
ATOM     18  H14 UNL     1       9.952  16.743  15.540  0.00  0.00    +0.142 HD
ATOM     19  H15 UNL     1      10.282  16.139  17.180  0.00  0.00    +0.142 HD
ENDBRANCH   4  17
BRANCH   3  20
ATOM     20  S1  UNL     1       8.254  15.348  13.859  0.00  0.00    +0.111 S 
ATOM     21  O4  UNL     1       7.264  14.776  12.884  0.00  0.00    -0.142 OA
ATOM     22  O5  UNL     1       8.683  16.717  13.411  0.00  0.00    -0.142 OA
BRANCH  20  23
ATOM     23  O6  UNL     1       9.609  14.351  13.915  0.00  0.00    -0.250 OA
ATOM     24  H16 UNL     1       9.954  14.337  12.986  0.00  0.00    +0.245 HD
ENDBRANCH  20  23
ENDBRANCH   3  20
BRANCH   1  25
ATOM     25  N2  UNL     1       4.201  14.587  16.924  0.00  0.00    -0.314 N 
ATOM     26  H8  UNL     1       3.533  15.195  17.451  0.00  0.00    +0.152 HD
BRANCH  25  30
ATOM     27  C3  UNL     1       2.922  10.710  15.706  0.00  0.00    +0.036 A 
ATOM     28  C4  UNL     1       4.049  10.871  16.526  0.00  0.00    +0.025 A 
ATOM     29  C5  UNL     1       4.463  12.147  16.916  0.00  0.00    +0.025 A 
ATOM     30  C6  UNL     1       3.755  13.285  16.498  0.00  0.00    +0.031 A 
ATOM     31  C7  UNL     1       2.628  13.123  15.671  0.00  0.00    +0.025 A 
ATOM     32  C8  UNL     1       2.214  11.846  15.283  0.00  0.00    +0.025 A 
BRANCH  27  36
ATOM     33  C1  UNL     1       2.727   7.343  13.780  0.00  0.00    +0.109 C 
ATOM     34  C2  UNL     1       3.075   8.752  14.157  0.00  0.00    +0.216 C 
ATOM     35  O1  UNL     1       3.892   9.384  13.432  0.00  0.00    -0.276 OA
ATOM     36  N1  UNL     1       2.489   9.391  15.313  0.00  0.00    -0.275 N 
ATOM     37  C23 UNL     1       1.365   8.767  16.018  0.00  0.00    +0.138 C 
ENDBRANCH  27  36
ENDBRANCH  25  30
ENDBRANCH   1  25
TORSDOF 6
ENDMDL
MODEL 6
REMARK minimizedAffinity -6.81910467
REMARK minimizedRMSD -1
REMARK  Name = /home/tchapet/Post-Doc/ARTICLES-DOSSIERS-DES-ARTICLES-EN-REDACTION/NOUVELS-AXES-DE-RECHERCHE-A-REGARDER-URGEMMENT/ARTICLES-EN-REDACTIONS/ARTICLE_MVOTO/Paper2_JCIM/docking_rerun/ligands/17574.pdb
REMARK  8 active torsions:
REMARK  status: ('A' for Active; 'I' for Inactive)
REMARK    1  A    between atoms: C1_1  and  C2_2
REMARK    2  A    between atoms: N1_4  and  C3_5
REMARK    3  A    between atoms: N1_4  and  C23_33
REMARK    4  A    between atoms: C6_8  and  N2_11
REMARK    5  A    between atoms: N2_11  and  C9_12
REMARK    6  A    between atoms: C11_14  and  S1_29
REMARK    7  A    between atoms: C12_15  and  N3_28
REMARK    8  A    between atoms: S1_29  and  O6_32
REMARK                            x       y       z     vdW  Elec       q    Type
REMARK                         _______ _______ _______ _____ _____    ______ ____
ROOT
ATOM      1  C9  UNL     1       5.567  13.306  16.917  0.00  0.00    +0.045 A 
ATOM      2  C10 UNL     1       6.222  13.672  15.743  0.00  0.00    +0.055 A 
ATOM      3  C11 UNL     1       7.159  14.704  15.730  0.00  0.00    +0.140 A 
ATOM      4  C12 UNL     1       7.421  15.429  16.914  0.00  0.00    +0.064 A 
ATOM      5  C13 UNL     1       6.724  15.100  18.111  0.00  0.00    +0.057 A 
ATOM      6  C14 UNL     1       5.861  13.974  18.131  0.00  0.00    +0.056 A 
ATOM      7  C15 UNL     1       5.316  13.496  19.436  0.00  0.00    +0.196 C 
ATOM      8  O2  UNL     1       4.735  12.379  19.514  0.00  0.00    -0.287 OA
ATOM      9  C16 UNL     1       5.509  14.292  20.666  0.00  0.00    +0.033 A 
ATOM     10  C17 UNL     1       4.959  13.864  21.890  0.00  0.00    +0.012 A 
ATOM     11  C18 UNL     1       5.145  14.618  23.050  0.00  0.00    +0.001 A 
ATOM     12  C19 UNL     1       5.876  15.804  23.003  0.00  0.00    +0.001 A 
ATOM     13  C20 UNL     1       6.425  16.240  21.795  0.00  0.00    +0.012 A 
ATOM     14  C21 UNL     1       6.247  15.487  20.618  0.00  0.00    +0.033 A 
ATOM     15  C22 UNL     1       6.818  15.951  19.335  0.00  0.00    +0.196 C 
ATOM     16  O3  UNL     1       7.316  17.108  19.274  0.00  0.00    -0.287 OA
ENDROOT
BRANCH   4  17
ATOM     17  N3  UNL     1       8.435  16.445  16.913  0.00  0.00    -0.356 N 
ATOM     18  H14 UNL     1       8.642  17.013  16.063  0.00  0.00    +0.142 HD
ATOM     19  H15 UNL     1       9.073  16.564  17.729  0.00  0.00    +0.142 HD
ENDBRANCH   4  17
BRANCH   3  20
ATOM     20  S1  UNL     1       8.006  15.055  14.215  0.00  0.00    +0.111 S 
ATOM     21  O4  UNL     1       7.380  14.267  13.099  0.00  0.00    -0.142 OA
ATOM     22  O5  UNL     1       7.917  16.525  13.918  0.00  0.00    -0.142 OA
BRANCH  20  23
ATOM     23  O6  UNL     1       9.629  14.628  14.344  0.00  0.00    -0.250 OA
ATOM     24  H16 UNL     1      10.021  14.844  13.459  0.00  0.00    +0.245 HD
ENDBRANCH  20  23
ENDBRANCH   3  20
BRANCH   1  25
ATOM     25  N2  UNL     1       4.584  12.262  16.841  0.00  0.00    -0.314 N 
ATOM     26  H8  UNL     1       4.930  11.285  16.711  0.00  0.00    +0.152 HD
BRANCH  25  30
ATOM     27  C3  UNL     1       0.391  12.944  16.502  0.00  0.00    +0.036 A 
ATOM     28  C4  UNL     1       0.891  11.667  16.797  0.00  0.00    +0.025 A 
ATOM     29  C5  UNL     1       2.268  11.453  16.901  0.00  0.00    +0.025 A 
ATOM     30  C6  UNL     1       3.170  12.512  16.718  0.00  0.00    +0.031 A 
ATOM     31  C7  UNL     1       2.668  13.792  16.417  0.00  0.00    +0.025 A 
ATOM     32  C8  UNL     1       1.291  14.006  16.314  0.00  0.00    +0.025 A 
BRANCH  27  36
ATOM     33  C1  UNL     1      -3.251  13.841  17.508  0.00  0.00    +0.109 C 
ATOM     34  C2  UNL     1      -1.793  13.501  17.587  0.00  0.00    +0.216 C 
ATOM     35  O1  UNL     1      -1.235  13.501  18.719  0.00  0.00    -0.276 OA
ATOM     36  N1  UNL     1      -1.031  13.166  16.406  0.00  0.00    -0.275 N 
ATOM     37  C23 UNL     1      -1.708  12.922  15.128  0.00  0.00    +0.138 C 
ENDBRANCH  27  36
ENDBRANCH  25  30
ENDBRANCH   1  25
TORSDOF 6
ENDMDL
MODEL 7
REMARK minimizedAffinity -6.75643682
REMARK minimizedRMSD -1
REMARK  Name = /home/tchapet/Post-Doc/ARTICLES-DOSSIERS-DES-ARTICLES-EN-REDACTION/NOUVELS-AXES-DE-RECHERCHE-A-REGARDER-URGEMMENT/ARTICLES-EN-REDACTIONS/ARTICLE_MVOTO/Paper2_JCIM/docking_rerun/ligands/17574.pdb
REMARK  8 active torsions:
REMARK  status: ('A' for Active; 'I' for Inactive)
REMARK    1  A    between atoms: C1_1  and  C2_2
REMARK    2  A    between atoms: N1_4  and  C3_5
REMARK    3  A    between atoms: N1_4  and  C23_33
REMARK    4  A    between atoms: C6_8  and  N2_11
REMARK    5  A    between atoms: N2_11  and  C9_12
REMARK    6  A    between atoms: C11_14  and  S1_29
REMARK    7  A    between atoms: C12_15  and  N3_28
REMARK    8  A    between atoms: S1_29  and  O6_32
REMARK                            x       y       z     vdW  Elec       q    Type
REMARK                         _______ _______ _______ _____ _____    ______ ____
ROOT
ATOM      1  C9  UNL     1      17.663   0.564   6.512  0.00  0.00    +0.045 A 
ATOM      2  C10 UNL     1      18.622   1.491   6.107  0.00  0.00    +0.055 A 
ATOM      3  C11 UNL     1      19.904   1.488   6.652  0.00  0.00    +0.140 A 
ATOM      4  C12 UNL     1      20.233   0.564   7.668  0.00  0.00    +0.064 A 
ATOM      5  C13 UNL     1      19.249  -0.358   8.129  0.00  0.00    +0.057 A 
ATOM      6  C14 UNL     1      17.988  -0.415   7.482  0.00  0.00    +0.056 A 
ATOM      7  C15 UNL     1      17.050  -1.530   7.810  0.00  0.00    +0.196 C 
ATOM      8  O2  UNL     1      16.029  -1.734   7.099  0.00  0.00    -0.287 OA
ATOM      9  C16 UNL     1      17.341  -2.450   8.928  0.00  0.00    +0.033 A 
ATOM     10  C17 UNL     1      16.438  -3.476   9.267  0.00  0.00    +0.012 A 
ATOM     11  C18 UNL     1      16.717  -4.344  10.324  0.00  0.00    +0.001 A 
ATOM     12  C19 UNL     1      17.896  -4.199  11.054  0.00  0.00    +0.001 A 
ATOM     13  C20 UNL     1      18.799  -3.185  10.731  0.00  0.00    +0.012 A 
ATOM     14  C21 UNL     1      18.531  -2.304   9.665  0.00  0.00    +0.033 A 
ATOM     15  C22 UNL     1      19.480  -1.221   9.325  0.00  0.00    +0.196 C 
ATOM     16  O3  UNL     1      20.444  -0.992  10.105  0.00  0.00    -0.287 OA
ENDROOT
BRANCH   4  17
ATOM     17  N3  UNL     1      21.574   0.519   8.180  0.00  0.00    -0.356 N 
ATOM     18  H14 UNL     1      22.169   1.373   8.233  0.00  0.00    +0.142 HD
ATOM     19  H15 UNL     1      22.030  -0.392   8.404  0.00  0.00    +0.142 HD
ENDBRANCH   4  17
BRANCH   3  20
ATOM     20  S1  UNL     1      21.089   2.646   6.027  0.00  0.00    +0.111 S 
ATOM     21  O4  UNL     1      22.474   2.090   6.207  0.00  0.00    -0.142 OA
ATOM     22  O5  UNL     1      20.824   2.899   4.569  0.00  0.00    -0.142 OA
BRANCH  20  23
ATOM     23  O6  UNL     1      20.972   4.105   6.857  0.00  0.00    -0.250 OA
ATOM     24  H16 UNL     1      21.670   4.684   6.457  0.00  0.00    +0.245 HD
ENDBRANCH  20  23
ENDBRANCH   3  20
BRANCH   1  25
ATOM     25  N2  UNL     1      16.351   0.659   5.935  0.00  0.00    -0.314 N 
ATOM     26  H8  UNL     1      15.535   0.550   6.579  0.00  0.00    +0.152 HD
BRANCH  25  30
ATOM     27  C3  UNL     1      15.646   0.657   1.733  0.00  0.00    +0.036 A 
ATOM     28  C4  UNL     1      16.239  -0.446   2.363  0.00  0.00    +0.025 A 
ATOM     29  C5  UNL     1      16.470  -0.434   3.741  0.00  0.00    +0.025 A 
ATOM     30  C6  UNL     1      16.108   0.679   4.515  0.00  0.00    +0.031 A 
ATOM     31  C7  UNL     1      15.518   1.789   3.881  0.00  0.00    +0.025 A 
ATOM     32  C8  UNL     1      15.286   1.775   2.503  0.00  0.00    +0.025 A 
BRANCH  27  36
ATOM     33  C1  UNL     1      16.209   1.067  -2.088  0.00  0.00    +0.109 C 
ATOM     34  C2  UNL     1      16.386   1.165  -0.602  0.00  0.00    +0.216 C 
ATOM     35  O1  UNL     1      17.422   1.730  -0.155  0.00  0.00    -0.276 OA
ATOM     36  N1  UNL     1      15.398   0.639   0.312  0.00  0.00    -0.275 N 
ATOM     37  C23 UNL     1      14.087   0.203  -0.180  0.00  0.00    +0.138 C 
ENDBRANCH  27  36
ENDBRANCH  25  30
ENDBRANCH   1  25
TORSDOF 6
ENDMDL
MODEL 8
REMARK minimizedAffinity -6.72839594
REMARK minimizedRMSD -1
REMARK  Name = /home/tchapet/Post-Doc/ARTICLES-DOSSIERS-DES-ARTICLES-EN-REDACTION/NOUVELS-AXES-DE-RECHERCHE-A-REGARDER-URGEMMENT/ARTICLES-EN-REDACTIONS/ARTICLE_MVOTO/Paper2_JCIM/docking_rerun/ligands/17574.pdb
REMARK  8 active torsions:
REMARK  status: ('A' for Active; 'I' for Inactive)
REMARK    1  A    between atoms: C1_1  and  C2_2
REMARK    2  A    between atoms: N1_4  and  C3_5
REMARK    3  A    between atoms: N1_4  and  C23_33
REMARK    4  A    between atoms: C6_8  and  N2_11
REMARK    5  A    between atoms: N2_11  and  C9_12
REMARK    6  A    between atoms: C11_14  and  S1_29
REMARK    7  A    between atoms: C12_15  and  N3_28
REMARK    8  A    between atoms: S1_29  and  O6_32
REMARK                            x       y       z     vdW  Elec       q    Type
REMARK                         _______ _______ _______ _____ _____    ______ ____
ROOT
ATOM      1  C9  UNL     1       4.744  13.598  18.389  0.00  0.00    +0.045 A 
ATOM      2  C10 UNL     1       5.944  14.292  18.248  0.00  0.00    +0.055 A 
ATOM      3  C11 UNL     1       6.716  14.173  17.094  0.00  0.00    +0.140 A 
ATOM      4  C12 UNL     1       6.306  13.300  16.062  0.00  0.00    +0.064 A 
ATOM      5  C13 UNL     1       5.108  12.546  16.211  0.00  0.00    +0.057 A 
ATOM      6  C14 UNL     1       4.278  12.766  17.340  0.00  0.00    +0.056 A 
ATOM      7  C15 UNL     1       2.919  12.150  17.379  0.00  0.00    +0.196 C 
ATOM      8  O2  UNL     1       2.082  12.504  18.254  0.00  0.00    -0.287 OA
ATOM      9  C16 UNL     1       2.512  11.167  16.353  0.00  0.00    +0.033 A 
ATOM     10  C17 UNL     1       1.246  10.553  16.411  0.00  0.00    +0.012 A 
ATOM     11  C18 UNL     1       0.865   9.626  15.440  0.00  0.00    +0.001 A 
ATOM     12  C19 UNL     1       1.739   9.300  14.403  0.00  0.00    +0.001 A 
ATOM     13  C20 UNL     1       2.998   9.901  14.335  0.00  0.00    +0.012 A 
ATOM     14  C21 UNL     1       3.393  10.840  15.307  0.00  0.00    +0.033 A 
ATOM     15  C22 UNL     1       4.730  11.471  15.244  0.00  0.00    +0.196 C 
ATOM     16  O3  UNL     1       5.570  11.033  14.412  0.00  0.00    -0.287 OA
ENDROOT
BRANCH   4  17
ATOM     17  N3  UNL     1       7.068  13.232  14.847  0.00  0.00    -0.356 N 
ATOM     18  H14 UNL     1       8.100  13.377  14.837  0.00  0.00    +0.142 HD
ATOM     19  H15 UNL     1       6.592  13.151  13.922  0.00  0.00    +0.142 HD
ENDBRANCH   4  17
BRANCH   3  20
ATOM     20  S1  UNL     1       8.187  15.150  16.959  0.00  0.00    +0.111 S 
ATOM     21  O4  UNL     1       8.142  15.947  15.685  0.00  0.00    -0.142 OA
ATOM     22  O5  UNL     1       8.286  16.075  18.139  0.00  0.00    -0.142 OA
BRANCH  20  23
ATOM     23  O6  UNL     1       9.545  14.157  16.937  0.00  0.00    -0.250 OA
ATOM     24  H16 UNL     1      10.313  14.777  16.848  0.00  0.00    +0.245 HD
ENDBRANCH  20  23
ENDBRANCH   3  20
BRANCH   1  25
ATOM     25  N2  UNL     1       4.027  13.737  19.625  0.00  0.00    -0.314 N 
ATOM     26  H8  UNL     1       3.127  13.216  19.719  0.00  0.00    +0.152 HD
BRANCH  25  30
ATOM     27  C3  UNL     1       5.067  16.562  22.641  0.00  0.00    +0.036 A 
ATOM     28  C4  UNL     1       5.277  15.189  22.838  0.00  0.00    +0.025 A 
ATOM     29  C5  UNL     1       4.929  14.271  21.844  0.00  0.00    +0.025 A 
ATOM     30  C6  UNL     1       4.368  14.707  20.635  0.00  0.00    +0.031 A 
ATOM     31  C7  UNL     1       4.152  16.085  20.440  0.00  0.00    +0.025 A 
ATOM     32  C8  UNL     1       4.502  17.003  21.434  0.00  0.00    +0.025 A 
BRANCH  27  36
ATOM     33  C1  UNL     1       7.187  19.072  24.712  0.00  0.00    +0.109 C 
ATOM     34  C2  UNL     1       6.791  18.008  23.732  0.00  0.00    +0.216 C 
ATOM     35  O1  UNL     1       7.676  17.541  22.962  0.00  0.00    -0.276 OA
ATOM     36  N1  UNL     1       5.437  17.510  23.663  0.00  0.00    -0.275 N 
ATOM     37  C23 UNL     1       4.462  17.859  24.702  0.00  0.00    +0.138 C 
ENDBRANCH  27  36
ENDBRANCH  25  30
ENDBRANCH   1  25
TORSDOF 6
ENDMDL
MODEL 9
REMARK minimizedAffinity -6.71671152
REMARK minimizedRMSD -1
REMARK  Name = /home/tchapet/Post-Doc/ARTICLES-DOSSIERS-DES-ARTICLES-EN-REDACTION/NOUVELS-AXES-DE-RECHERCHE-A-REGARDER-URGEMMENT/ARTICLES-EN-REDACTIONS/ARTICLE_MVOTO/Paper2_JCIM/docking_rerun/ligands/17574.pdb
REMARK  8 active torsions:
REMARK  status: ('A' for Active; 'I' for Inactive)
REMARK    1  A    between atoms: C1_1  and  C2_2
REMARK    2  A    between atoms: N1_4  and  C3_5
REMARK    3  A    between atoms: N1_4  and  C23_33
REMARK    4  A    between atoms: C6_8  and  N2_11
REMARK    5  A    between atoms: N2_11  and  C9_12
REMARK    6  A    between atoms: C11_14  and  S1_29
REMARK    7  A    between atoms: C12_15  and  N3_28
REMARK    8  A    between atoms: S1_29  and  O6_32
REMARK                            x       y       z     vdW  Elec       q    Type
REMARK                         _______ _______ _______ _____ _____    ______ ____
ROOT
ATOM      1  C9  UNL     1       6.575  13.562  16.937  0.00  0.00    +0.045 A 
ATOM      2  C10 UNL     1       7.183  14.155  15.831  0.00  0.00    +0.055 A 
ATOM      3  C11 UNL     1       7.625  15.476  15.872  0.00  0.00    +0.140 A 
ATOM      4  C12 UNL     1       7.416  16.250  17.035  0.00  0.00    +0.064 A 
ATOM      5  C13 UNL     1       6.753  15.675  18.156  0.00  0.00    +0.057 A 
ATOM      6  C14 UNL     1       6.414  14.298  18.137  0.00  0.00    +0.056 A 
ATOM      7  C15 UNL     1       5.934  13.647  19.391  0.00  0.00    +0.196 C 
ATOM      8  O2  UNL     1       5.839  12.391  19.463  0.00  0.00    -0.287 OA
ATOM      9  C16 UNL     1       5.628  14.459  20.587  0.00  0.00    +0.033 A 
ATOM     10  C17 UNL     1       5.135  13.853  21.759  0.00  0.00    +0.012 A 
ATOM     11  C18 UNL     1       4.848  14.624  22.887  0.00  0.00    +0.001 A 
ATOM     12  C19 UNL     1       5.047  16.003  22.860  0.00  0.00    +0.001 A 
ATOM     13  C20 UNL     1       5.535  16.617  21.704  0.00  0.00    +0.012 A 
ATOM     14  C21 UNL     1       5.830  15.851  20.560  0.00  0.00    +0.033 A 
ATOM     15  C22 UNL     1       6.337  16.499  19.330  0.00  0.00    +0.196 C 
ATOM     16  O3  UNL     1       6.338  17.758  19.263  0.00  0.00    -0.287 OA
ENDROOT
BRANCH   4  17
ATOM     17  N3  UNL     1       7.934  17.589  17.097  0.00  0.00    -0.356 N 
ATOM     18  H14 UNL     1       8.010  18.187  16.247  0.00  0.00    +0.142 HD
ATOM     19  H15 UNL     1       8.356  17.957  17.977  0.00  0.00    +0.142 HD
ENDBRANCH   4  17
BRANCH   3  20
ATOM     20  S1  UNL     1       8.458  16.130  14.453  0.00  0.00    +0.111 S 
ATOM     21  O4  UNL     1       8.559  15.065  13.397  0.00  0.00    -0.142 OA
ATOM     22  O5  UNL     1       7.694  17.310  13.920  0.00  0.00    -0.142 OA
BRANCH  20  23
ATOM     23  O6  UNL     1      10.008  16.636  14.870  0.00  0.00    -0.250 OA
ATOM     24  H16 UNL     1      10.403  16.973  14.026  0.00  0.00    +0.245 HD
ENDBRANCH  20  23
ENDBRANCH   3  20
BRANCH   1  25
ATOM     25  N2  UNL     1       6.107  12.212  16.802  0.00  0.00    -0.314 N 
ATOM     26  H8  UNL     1       6.787  11.445  17.009  0.00  0.00    +0.152 HD
BRANCH  25  30
ATOM     27  C3  UNL     1       2.399  11.154  14.988  0.00  0.00    +0.036 A 
ATOM     28  C4  UNL     1       3.618  10.845  14.367  0.00  0.00    +0.025 A 
ATOM     29  C5  UNL     1       4.828  11.201  14.968  0.00  0.00    +0.025 A 
ATOM     30  C6  UNL     1       4.843  11.866  16.203  0.00  0.00    +0.031 A 
ATOM     31  C7  UNL     1       3.619  12.180  16.824  0.00  0.00    +0.025 A 
ATOM     32  C8  UNL     1       2.409  11.823  16.223  0.00  0.00    +0.025 A 
BRANCH  27  36
ATOM     33  C1  UNL     1      -0.852   9.175  14.216  0.00  0.00    +0.109 C 
ATOM     34  C2  UNL     1       0.496   9.548  14.757  0.00  0.00    +0.216 C 
ATOM     35  O1  UNL     1       1.063   8.754  15.557  0.00  0.00    -0.276 OA
ATOM     36  N1  UNL     1       1.151  10.777  14.372  0.00  0.00    -0.275 N 
ATOM     37  C23 UNL     1       0.625  11.586  13.267  0.00  0.00    +0.138 C 
ENDBRANCH  27  36
ENDBRANCH  25  30
ENDBRANCH   1  25
TORSDOF 6
ENDMDL
