MODEL 1
REMARK minimizedAffinity -7.91277361
REMARK minimizedRMSD -1
REMARK  Name = /home/tchapet/Post-Doc/ARTICLES-DOSSIERS-DES-ARTICLES-EN-REDACTION/NOUVELS-AXES-DE-RECHERCHE-A-REGARDER-URGEMMENT/ARTICLES-EN-REDACTIONS/ARTICLE_MVOTO/Paper2_JCIM/docking_rerun/ligands/17574.pdb
REMARK  8 active torsions:
REMARK  status: ('A' for Active; 'I' for Inactive)
REMARK    1  A    between atoms: C1_1  and  C2_2
REMARK    2  A    between atoms: N1_4  and  C3_5
REMARK    3  A    between atoms: N1_4  and  C23_33
REMARK    4  A    between atoms: C6_8  and  N2_11
REMARK    5  A    between atoms: N2_11  and  C9_12
REMARK    6  A    between atoms: C11_14  and  S1_29
REMARK    7  A    between atoms: C12_15  and  N3_28
REMARK    8  A    between atoms: S1_29  and  O6_32
REMARK                            x       y       z     vdW  Elec       q    Type
REMARK                         _______ _______ _______ _____ _____    ______ ____
ROOT
ATOM      1  C9  UNL     1     -21.615 -30.976   7.245  0.00  0.00    +0.045 A 
ATOM      2  C10 UNL     1     -22.877 -30.731   7.783  0.00  0.00    +0.055 A 
ATOM      3  C11 UNL     1     -23.800 -29.922   7.123  0.00  0.00    +0.140 A 
ATOM      4  C12 UNL     1     -23.442 -29.297   5.908  0.00  0.00    +0.064 A 
ATOM      5  C13 UNL     1     -22.139 -29.497   5.369  0.00  0.00    +0.057 A 
ATOM      6  C14 UNL     1     -21.256 -30.414   5.995  0.00  0.00    +0.056 A 
ATOM      7  C15 UNL     1     -19.989 -30.795   5.304  0.00  0.00    +0.196 C 
ATOM      8  O2  UNL     1     -19.299 -31.764   5.724  0.00  0.00    -0.287 OA
ATOM      9  C16 UNL     1     -19.560 -30.087   4.080  0.00  0.00    +0.033 A 
ATOM     10  C17 UNL     1     -18.345 -30.415   3.450  0.00  0.00    +0.012 A 
ATOM     11  C18 UNL     1     -17.944 -29.745   2.293  0.00  0.00    +0.001 A 
ATOM     12  C19 UNL     1     -18.747 -28.741   1.754  0.00  0.00    +0.001 A 
ATOM     13  C20 UNL     1     -19.954 -28.404   2.369  0.00  0.00    +0.012 A 
ATOM     14  C21 UNL     1     -20.371 -29.075   3.535  0.00  0.00    +0.033 A 
ATOM     15  C22 UNL     1     -21.644 -28.714   4.197  0.00  0.00    +0.196 C 
ATOM     16  O3  UNL     1     -22.264 -27.688   3.804  0.00  0.00    -0.287 OA
ENDROOT
BRANCH   4  17
ATOM     17  N3  UNL     1     -24.417 -28.520   5.196  0.00  0.00    -0.356 N 
ATOM     18  H14 UNL     1     -25.165 -27.990   5.693  0.00  0.00    +0.142 HD
ATOM     19  H15 UNL     1     -24.475 -28.559   4.156  0.00  0.00    +0.142 HD
ENDBRANCH   4  17
BRANCH   3  20
ATOM     20  S1  UNL     1     -25.409 -29.725   7.834  0.00  0.00    +0.111 S 
ATOM     21  O4  UNL     1     -25.673 -28.265   8.075  0.00  0.00    -0.142 OA
ATOM     22  O5  UNL     1     -26.444 -30.285   6.898  0.00  0.00    -0.142 OA
BRANCH  20  23
ATOM     23  O6  UNL     1     -25.504 -30.549   9.298  0.00  0.00    -0.250 OA
ATOM     24  H16 UNL     1     -26.423 -30.378   9.628  0.00  0.00    +0.245 HD
ENDBRANCH  20  23
ENDBRANCH   3  20
BRANCH   1  25
ATOM     25  N2  UNL     1     -20.705 -31.784   8.006  0.00  0.00    -0.314 N 
ATOM     26  H8  UNL     1     -20.418 -32.701   7.595  0.00  0.00    +0.152 HD
BRANCH  25  30
ATOM     27  C3  UNL     1     -19.611 -31.003  12.050  0.00  0.00    +0.036 A 
ATOM     28  C4  UNL     1     -19.439 -32.278  11.491  0.00  0.00    +0.025 A 
ATOM     29  C5  UNL     1     -19.805 -32.526  10.166  0.00  0.00    +0.025 A 
ATOM     30  C6  UNL     1     -20.345 -31.502   9.373  0.00  0.00    +0.031 A 
ATOM     31  C7  UNL     1     -20.523 -30.224   9.935  0.00  0.00    +0.025 A 
ATOM     32  C8  UNL     1     -20.155 -29.977  11.260  0.00  0.00    +0.025 A 
BRANCH  27  36
ATOM     33  C1  UNL     1     -17.526 -29.809  15.101  0.00  0.00    +0.109 C 
ATOM     34  C2  UNL     1     -17.924 -30.186  13.705  0.00  0.00    +0.216 C 
ATOM     35  O1  UNL     1     -17.089 -30.013  12.774  0.00  0.00    -0.276 OA
ATOM     36  N1  UNL     1     -19.223 -30.747  13.415  0.00  0.00    -0.275 N 
ATOM     37  C23 UNL     1     -20.106 -31.180  14.503  0.00  0.00    +0.138 C 
ENDBRANCH  27  36
ENDBRANCH  25  30
ENDBRANCH   1  25
TORSDOF 6
ENDMDL
MODEL 2
REMARK minimizedAffinity -7.42874527
REMARK minimizedRMSD -1
REMARK  Name = /home/tchapet/Post-Doc/ARTICLES-DOSSIERS-DES-ARTICLES-EN-REDACTION/NOUVELS-AXES-DE-RECHERCHE-A-REGARDER-URGEMMENT/ARTICLES-EN-REDACTIONS/ARTICLE_MVOTO/Paper2_JCIM/docking_rerun/ligands/17574.pdb
REMARK  8 active torsions:
REMARK  status: ('A' for Active; 'I' for Inactive)
REMARK    1  A    between atoms: C1_1  and  C2_2
REMARK    2  A    between atoms: N1_4  and  C3_5
REMARK    3  A    between atoms: N1_4  and  C23_33
REMARK    4  A    between atoms: C6_8  and  N2_11
REMARK    5  A    between atoms: N2_11  and  C9_12
REMARK    6  A    between atoms: C11_14  and  S1_29
REMARK    7  A    between atoms: C12_15  and  N3_28
REMARK    8  A    between atoms: S1_29  and  O6_32
REMARK                            x       y       z     vdW  Elec       q    Type
REMARK                         _______ _______ _______ _____ _____    ______ ____
ROOT
ATOM      1  C9  UNL     1      -0.813  -9.496   3.550  0.00  0.00    +0.045 A 
ATOM      2  C10 UNL     1      -0.644  -9.398   2.170  0.00  0.00    +0.055 A 
ATOM      3  C11 UNL     1      -0.503 -10.535   1.376  0.00  0.00    +0.140 A 
ATOM      4  C12 UNL     1      -0.482 -11.813   1.978  0.00  0.00    +0.064 A 
ATOM      5  C13 UNL     1      -0.603 -11.928   3.392  0.00  0.00    +0.057 A 
ATOM      6  C14 UNL     1      -0.861 -10.770   4.169  0.00  0.00    +0.056 A 
ATOM      7  C15 UNL     1      -1.217 -10.922   5.611  0.00  0.00    +0.196 C 
ATOM      8  O2  UNL     1      -1.665  -9.941   6.265  0.00  0.00    -0.287 OA
ATOM      9  C16 UNL     1      -1.114 -12.239   6.274  0.00  0.00    +0.033 A 
ATOM     10  C17 UNL     1      -1.408 -12.377   7.643  0.00  0.00    +0.012 A 
ATOM     11  C18 UNL     1      -1.311 -13.623   8.266  0.00  0.00    +0.001 A 
ATOM     12  C19 UNL     1      -0.919 -14.741   7.532  0.00  0.00    +0.001 A 
ATOM     13  C20 UNL     1      -0.622 -14.618   6.172  0.00  0.00    +0.012 A 
ATOM     14  C21 UNL     1      -0.719 -13.367   5.532  0.00  0.00    +0.033 A 
ATOM     15  C22 UNL     1      -0.396 -13.230   4.095  0.00  0.00    +0.196 C 
ATOM     16  O3  UNL     1       0.129 -14.206   3.495  0.00  0.00    -0.287 OA
ENDROOT
BRANCH   4  17
ATOM     17  N3  UNL     1      -0.405 -12.985   1.152  0.00  0.00    -0.356 N 
ATOM     18  H14 UNL     1       0.105 -12.982   0.242  0.00  0.00    +0.142 HD
ATOM     19  H15 UNL     1      -0.956 -13.839   1.384  0.00  0.00    +0.142 HD
ENDBRANCH   4  17
BRANCH   3  20
ATOM     20  S1  UNL     1      -0.373 -10.329  -0.378  0.00  0.00    +0.111 S 
ATOM     21  O4  UNL     1       0.926 -10.914  -0.855  0.00  0.00    -0.142 OA
ATOM     22  O5  UNL     1      -1.525 -11.020  -1.052  0.00  0.00    -0.142 OA
BRANCH  20  23
ATOM     23  O6  UNL     1      -0.418  -8.695  -0.776  0.00  0.00    -0.250 OA
ATOM     24  H16 UNL     1      -0.328  -8.670  -1.763  0.00  0.00    +0.245 HD
ENDBRANCH  20  23
ENDBRANCH   3  20
BRANCH   1  25
ATOM     25  N2  UNL     1      -0.907  -8.278   4.304  0.00  0.00    -0.314 N 
ATOM     26  H8  UNL     1      -1.865  -7.939   4.549  0.00  0.00    +0.152 HD
BRANCH  25  30
ATOM     27  C3  UNL     1       2.371  -5.650   5.014  0.00  0.00    +0.036 A 
ATOM     28  C4  UNL     1       1.152  -5.163   4.520  0.00  0.00    +0.025 A 
ATOM     29  C5  UNL     1       0.085  -6.034   4.286  0.00  0.00    +0.025 A 
ATOM     30  C6  UNL     1       0.214  -7.406   4.546  0.00  0.00    +0.031 A 
ATOM     31  C7  UNL     1       1.439  -7.895   5.037  0.00  0.00    +0.025 A 
ATOM     32  C8  UNL     1       2.506  -7.024   5.272  0.00  0.00    +0.025 A 
BRANCH  27  36
ATOM     33  C1  UNL     1       5.278  -3.154   4.378  0.00  0.00    +0.109 C 
ATOM     34  C2  UNL     1       4.201  -4.175   4.159  0.00  0.00    +0.216 C 
ATOM     35  O1  UNL     1       3.947  -4.538   2.977  0.00  0.00    -0.276 OA
ATOM     36  N1  UNL     1       3.468  -4.748   5.265  0.00  0.00    -0.275 N 
ATOM     37  C23 UNL     1       3.910  -4.526   6.645  0.00  0.00    +0.138 C 
ENDBRANCH  27  36
ENDBRANCH  25  30
ENDBRANCH   1  25
TORSDOF 6
ENDMDL
MODEL 3
REMARK minimizedAffinity -7.32133818
REMARK minimizedRMSD -1
REMARK  Name = /home/tchapet/Post-Doc/ARTICLES-DOSSIERS-DES-ARTICLES-EN-REDACTION/NOUVELS-AXES-DE-RECHERCHE-A-REGARDER-URGEMMENT/ARTICLES-EN-REDACTIONS/ARTICLE_MVOTO/Paper2_JCIM/docking_rerun/ligands/17574.pdb
REMARK  8 active torsions:
REMARK  status: ('A' for Active; 'I' for Inactive)
REMARK    1  A    between atoms: C1_1  and  C2_2
REMARK    2  A    between atoms: N1_4  and  C3_5
REMARK    3  A    between atoms: N1_4  and  C23_33
REMARK    4  A    between atoms: C6_8  and  N2_11
REMARK    5  A    between atoms: N2_11  and  C9_12
REMARK    6  A    between atoms: C11_14  and  S1_29
REMARK    7  A    between atoms: C12_15  and  N3_28
REMARK    8  A    between atoms: S1_29  and  O6_32
REMARK                            x       y       z     vdW  Elec       q    Type
REMARK                         _______ _______ _______ _____ _____    ______ ____
ROOT
ATOM      1  C9  UNL     1       1.026  -6.175   3.075  0.00  0.00    +0.045 A 
ATOM      2  C10 UNL     1       0.429  -7.011   4.017  0.00  0.00    +0.055 A 
ATOM      3  C11 UNL     1       0.860  -7.030   5.342  0.00  0.00    +0.140 A 
ATOM      4  C12 UNL     1       1.952  -6.225   5.736  0.00  0.00    +0.064 A 
ATOM      5  C13 UNL     1       2.606  -5.403   4.775  0.00  0.00    +0.057 A 
ATOM      6  C14 UNL     1       2.080  -5.311   3.460  0.00  0.00    +0.056 A 
ATOM      7  C15 UNL     1       2.622  -4.279   2.528  0.00  0.00    +0.196 C 
ATOM      8  O2  UNL     1       2.031  -4.025   1.443  0.00  0.00    -0.287 OA
ATOM      9  C16 UNL     1       3.818  -3.492   2.894  0.00  0.00    +0.033 A 
ATOM     10  C17 UNL     1       4.357  -2.548   1.999  0.00  0.00    +0.012 A 
ATOM     11  C18 UNL     1       5.487  -1.806   2.349  0.00  0.00    +0.001 A 
ATOM     12  C19 UNL     1       6.092  -1.998   3.590  0.00  0.00    +0.001 A 
ATOM     13  C20 UNL     1       5.569  -2.932   4.486  0.00  0.00    +0.012 A 
ATOM     14  C21 UNL     1       4.428  -3.685   4.147  0.00  0.00    +0.033 A 
ATOM     15  C22 UNL     1       3.877  -4.684   5.089  0.00  0.00    +0.196 C 
ATOM     16  O3  UNL     1       4.538  -4.973   6.123  0.00  0.00    -0.287 OA
ENDROOT
BRANCH   4  17
ATOM     17  N3  UNL     1       2.350  -6.196   7.116  0.00  0.00    -0.356 N 
ATOM     18  H14 UNL     1       2.246  -7.029   7.734  0.00  0.00    +0.142 HD
ATOM     19  H15 UNL     1       2.647  -5.304   7.567  0.00  0.00    +0.142 HD
ENDBRANCH   4  17
BRANCH   3  20
ATOM     20  S1  UNL     1      -0.003  -8.060   6.496  0.00  0.00    +0.111 S 
ATOM     21  O4  UNL     1      -1.200  -8.669   5.822  0.00  0.00    -0.142 OA
ATOM     22  O5  UNL     1       0.916  -9.143   6.987  0.00  0.00    -0.142 OA
BRANCH  20  23
ATOM     23  O6  UNL     1      -0.519  -7.151   7.814  0.00  0.00    -0.250 OA
ATOM     24  H16 UNL     1      -0.997  -7.795   8.397  0.00  0.00    +0.245 HD
ENDBRANCH  20  23
ENDBRANCH   3  20
BRANCH   1  25
ATOM     25  N2  UNL     1       0.555  -6.245   1.720  0.00  0.00    -0.314 N 
ATOM     26  H8  UNL     1       0.271  -5.348   1.265  0.00  0.00    +0.152 HD
BRANCH  25  30
ATOM     27  C3  UNL     1      -0.384  -9.910  -0.240  0.00  0.00    +0.036 A 
ATOM     28  C4  UNL     1      -1.143  -9.462   0.851  0.00  0.00    +0.025 A 
ATOM     29  C5  UNL     1      -0.824  -8.262   1.490  0.00  0.00    +0.025 A 
ATOM     30  C6  UNL     1       0.255  -7.483   1.047  0.00  0.00    +0.031 A 
ATOM     31  C7  UNL     1       1.020  -7.935  -0.045  0.00  0.00    +0.025 A 
ATOM     32  C8  UNL     1       0.700  -9.136  -0.684  0.00  0.00    +0.025 A 
BRANCH  27  36
ATOM     33  C1  UNL     1      -1.950 -12.386  -2.790  0.00  0.00    +0.109 C 
ATOM     34  C2  UNL     1      -1.656 -11.141  -2.007  0.00  0.00    +0.216 C 
ATOM     35  O1  UNL     1      -2.254 -10.076  -2.325  0.00  0.00    -0.276 OA
ATOM     36  N1  UNL     1      -0.721 -11.144  -0.905  0.00  0.00    -0.275 N 
ATOM     37  C23 UNL     1      -0.208 -12.409  -0.369  0.00  0.00    +0.138 C 
ENDBRANCH  27  36
ENDBRANCH  25  30
ENDBRANCH   1  25
TORSDOF 6
ENDMDL
MODEL 4
REMARK minimizedAffinity -7.15670061
REMARK minimizedRMSD -1
REMARK  Name = /home/tchapet/Post-Doc/ARTICLES-DOSSIERS-DES-ARTICLES-EN-REDACTION/NOUVELS-AXES-DE-RECHERCHE-A-REGARDER-URGEMMENT/ARTICLES-EN-REDACTIONS/ARTICLE_MVOTO/Paper2_JCIM/docking_rerun/ligands/17574.pdb
REMARK  8 active torsions:
REMARK  status: ('A' for Active; 'I' for Inactive)
REMARK    1  A    between atoms: C1_1  and  C2_2
REMARK    2  A    between atoms: N1_4  and  C3_5
REMARK    3  A    between atoms: N1_4  and  C23_33
REMARK    4  A    between atoms: C6_8  and  N2_11
REMARK    5  A    between atoms: N2_11  and  C9_12
REMARK    6  A    between atoms: C11_14  and  S1_29
REMARK    7  A    between atoms: C12_15  and  N3_28
REMARK    8  A    between atoms: S1_29  and  O6_32
REMARK                            x       y       z     vdW  Elec       q    Type
REMARK                         _______ _______ _______ _____ _____    ______ ____
ROOT
ATOM      1  C9  UNL     1      -0.786  -9.732   3.648  0.00  0.00    +0.045 A 
ATOM      2  C10 UNL     1      -0.333  -8.425   3.478  0.00  0.00    +0.055 A 
ATOM      3  C11 UNL     1       0.569  -7.851   4.372  0.00  0.00    +0.140 A 
ATOM      4  C12 UNL     1       1.001  -8.583   5.501  0.00  0.00    +0.064 A 
ATOM      5  C13 UNL     1       0.509  -9.902   5.716  0.00  0.00    +0.057 A 
ATOM      6  C14 UNL     1      -0.316 -10.509   4.736  0.00  0.00    +0.056 A 
ATOM      7  C15 UNL     1      -0.638 -11.962   4.851  0.00  0.00    +0.196 C 
ATOM      8  O2  UNL     1      -1.176 -12.576   3.889  0.00  0.00    -0.287 OA
ATOM      9  C16 UNL     1      -0.268 -12.718   6.066  0.00  0.00    +0.033 A 
ATOM     10  C17 UNL     1      -0.607 -14.078   6.196  0.00  0.00    +0.012 A 
ATOM     11  C18 UNL     1      -0.255 -14.789   7.345  0.00  0.00    +0.001 A 
ATOM     12  C19 UNL     1       0.435 -14.152   8.375  0.00  0.00    +0.001 A 
ATOM     13  C20 UNL     1       0.777 -12.803   8.261  0.00  0.00    +0.012 A 
ATOM     14  C21 UNL     1       0.430 -12.076   7.105  0.00  0.00    +0.033 A 
ATOM     15  C22 UNL     1       0.780 -10.644   6.984  0.00  0.00    +0.196 C 
ATOM     16  O3  UNL     1       1.238 -10.043   7.993  0.00  0.00    -0.287 OA
ENDROOT
BRANCH   4  17
ATOM     17  N3  UNL     1       1.981  -8.014   6.382  0.00  0.00    -0.356 N 
ATOM     18  H14 UNL     1       2.039  -6.986   6.548  0.00  0.00    +0.142 HD
ATOM     19  H15 UNL     1       2.738  -8.603   6.791  0.00  0.00    +0.142 HD
ENDBRANCH   4  17
BRANCH   3  20
ATOM     20  S1  UNL     1       1.158  -6.214   4.042  0.00  0.00    +0.111 S 
ATOM     21  O4  UNL     1       2.642  -6.256   3.803  0.00  0.00    -0.142 OA
ATOM     22  O5  UNL     1       0.459  -5.663   2.830  0.00  0.00    -0.142 OA
BRANCH  20  23
ATOM     23  O6  UNL     1       0.841  -5.206   5.351  0.00  0.00    -0.250 OA
ATOM     24  H16 UNL     1       1.210  -4.324   5.090  0.00  0.00    +0.245 HD
ENDBRANCH  20  23
ENDBRANCH   3  20
BRANCH   1  25
ATOM     25  N2  UNL     1      -1.748 -10.238   2.710  0.00  0.00    -0.314 N 
ATOM     26  H8  UNL     1      -2.616 -10.670   3.099  0.00  0.00    +0.152 HD
BRANCH  25  30
ATOM     27  C3  UNL     1      -1.013 -10.592  -1.473  0.00  0.00    +0.036 A 
ATOM     28  C4  UNL     1      -2.107  -9.856  -0.994  0.00  0.00    +0.025 A 
ATOM     29  C5  UNL     1      -2.342  -9.750   0.380  0.00  0.00    +0.025 A 
ATOM     30  C6  UNL     1      -1.485 -10.372   1.299  0.00  0.00    +0.031 A 
ATOM     31  C7  UNL     1      -0.390 -11.115   0.818  0.00  0.00    +0.025 A 
ATOM     32  C8  UNL     1      -0.156 -11.220  -0.555  0.00  0.00    +0.025 A 
BRANCH  27  36
ATOM     33  C1  UNL     1      -1.286 -11.771  -5.163  0.00  0.00    +0.109 C 
ATOM     34  C2  UNL     1      -1.438 -11.704  -3.672  0.00  0.00    +0.216 C 
ATOM     35  O1  UNL     1      -2.163 -12.564  -3.102  0.00  0.00    -0.276 OA
ATOM     36  N1  UNL     1      -0.766 -10.691  -2.890  0.00  0.00    -0.275 N 
ATOM     37  C23 UNL     1       0.265  -9.844  -3.498  0.00  0.00    +0.138 C 
ENDBRANCH  27  36
ENDBRANCH  25  30
ENDBRANCH   1  25
TORSDOF 6
ENDMDL
MODEL 5
REMARK minimizedAffinity -7.15456772
REMARK minimizedRMSD -1
REMARK  Name = /home/tchapet/Post-Doc/ARTICLES-DOSSIERS-DES-ARTICLES-EN-REDACTION/NOUVELS-AXES-DE-RECHERCHE-A-REGARDER-URGEMMENT/ARTICLES-EN-REDACTIONS/ARTICLE_MVOTO/Paper2_JCIM/docking_rerun/ligands/17574.pdb
REMARK  8 active torsions:
REMARK  status: ('A' for Active; 'I' for Inactive)
REMARK    1  A    between atoms: C1_1  and  C2_2
REMARK    2  A    between atoms: N1_4  and  C3_5
REMARK    3  A    between atoms: N1_4  and  C23_33
REMARK    4  A    between atoms: C6_8  and  N2_11
REMARK    5  A    between atoms: N2_11  and  C9_12
REMARK    6  A    between atoms: C11_14  and  S1_29
REMARK    7  A    between atoms: C12_15  and  N3_28
REMARK    8  A    between atoms: S1_29  and  O6_32
REMARK                            x       y       z     vdW  Elec       q    Type
REMARK                         _______ _______ _______ _____ _____    ______ ____
ROOT
ATOM      1  C9  UNL     1       0.211  -7.684   2.803  0.00  0.00    +0.045 A 
ATOM      2  C10 UNL     1      -0.425  -8.761   3.417  0.00  0.00    +0.055 A 
ATOM      3  C11 UNL     1      -0.094  -9.153   4.713  0.00  0.00    +0.140 A 
ATOM      4  C12 UNL     1       0.936  -8.482   5.408  0.00  0.00    +0.064 A 
ATOM      5  C13 UNL     1       1.630  -7.410   4.777  0.00  0.00    +0.057 A 
ATOM      6  C14 UNL     1       1.202  -6.953   3.504  0.00  0.00    +0.056 A 
ATOM      7  C15 UNL     1       1.776  -5.691   2.951  0.00  0.00    +0.196 C 
ATOM      8  O2  UNL     1       1.260  -5.145   1.938  0.00  0.00    -0.287 OA
ATOM      9  C16 UNL     1       2.913  -5.027   3.623  0.00  0.00    +0.033 A 
ATOM     10  C17 UNL     1       3.484  -3.860   3.081  0.00  0.00    +0.012 A 
ATOM     11  C18 UNL     1       4.557  -3.235   3.719  0.00  0.00    +0.001 A 
ATOM     12  C19 UNL     1       5.073  -3.766   4.900  0.00  0.00    +0.001 A 
ATOM     13  C20 UNL     1       4.517  -4.924   5.448  0.00  0.00    +0.012 A 
ATOM     14  C21 UNL     1       3.432  -5.563   4.815  0.00  0.00    +0.033 A 
ATOM     15  C22 UNL     1       2.847  -6.796   5.386  0.00  0.00    +0.196 C 
ATOM     16  O3  UNL     1       3.438  -7.360   6.346  0.00  0.00    -0.287 OA
ENDROOT
BRANCH   4  17
ATOM     17  N3  UNL     1       1.227  -8.843   6.767  0.00  0.00    -0.356 N 
ATOM     18  H14 UNL     1       1.105  -9.819   7.112  0.00  0.00    +0.142 HD
ATOM     19  H15 UNL     1       1.457  -8.114   7.476  0.00  0.00    +0.142 HD
ENDBRANCH   4  17
BRANCH   3  20
ATOM     20  S1  UNL     1      -1.005 -10.481   5.451  0.00  0.00    +0.111 S 
ATOM     21  O4  UNL     1      -0.112 -11.683   5.588  0.00  0.00    -0.142 OA
ATOM     22  O5  UNL     1      -1.505 -10.057   6.803  0.00  0.00    -0.142 OA
BRANCH  20  23
ATOM     23  O6  UNL     1      -2.325 -10.886   4.490  0.00  0.00    -0.250 OA
ATOM     24  H16 UNL     1      -2.766 -11.636   4.965  0.00  0.00    +0.245 HD
ENDBRANCH  20  23
ENDBRANCH   3  20
BRANCH   1  25
ATOM     25  N2  UNL     1      -0.153  -7.369   1.451  0.00  0.00    -0.314 N 
ATOM     26  H8  UNL     1      -0.410  -6.378   1.241  0.00  0.00    +0.152 HD
BRANCH  25  30
ATOM     27  C3  UNL     1      -0.787 -10.335  -1.543  0.00  0.00    +0.036 A 
ATOM     28  C4  UNL     1       0.504  -9.867  -1.255  0.00  0.00    +0.025 A 
ATOM     29  C5  UNL     1       0.701  -8.891  -0.275  0.00  0.00    +0.025 A 
ATOM     30  C6  UNL     1      -0.388  -8.368   0.439  0.00  0.00    +0.031 A 
ATOM     31  C7  UNL     1      -1.684  -8.834   0.146  0.00  0.00    +0.025 A 
ATOM     32  C8  UNL     1      -1.879  -9.811  -0.834  0.00  0.00    +0.025 A 
BRANCH  27  36
ATOM     33  C1  UNL     1      -1.211 -12.011  -5.021  0.00  0.00    +0.109 C 
ATOM     34  C2  UNL     1      -1.107 -10.977  -3.939  0.00  0.00    +0.216 C 
ATOM     35  O1  UNL     1      -1.137  -9.759  -4.266  0.00  0.00    -0.276 OA
ATOM     36  N1  UNL     1      -0.987 -11.350  -2.548  0.00  0.00    -0.275 N 
ATOM     37  C23 UNL     1      -1.195 -12.740  -2.129  0.00  0.00    +0.138 C 
ENDBRANCH  27  36
ENDBRANCH  25  30
ENDBRANCH   1  25
TORSDOF 6
ENDMDL
MODEL 6
REMARK minimizedAffinity -7.02834749
REMARK minimizedRMSD -1
REMARK  Name = /home/tchapet/Post-Doc/ARTICLES-DOSSIERS-DES-ARTICLES-EN-REDACTION/NOUVELS-AXES-DE-RECHERCHE-A-REGARDER-URGEMMENT/ARTICLES-EN-REDACTIONS/ARTICLE_MVOTO/Paper2_JCIM/docking_rerun/ligands/17574.pdb
REMARK  8 active torsions:
REMARK  status: ('A' for Active; 'I' for Inactive)
REMARK    1  A    between atoms: C1_1  and  C2_2
REMARK    2  A    between atoms: N1_4  and  C3_5
REMARK    3  A    between atoms: N1_4  and  C23_33
REMARK    4  A    between atoms: C6_8  and  N2_11
REMARK    5  A    between atoms: N2_11  and  C9_12
REMARK    6  A    between atoms: C11_14  and  S1_29
REMARK    7  A    between atoms: C12_15  and  N3_28
REMARK    8  A    between atoms: S1_29  and  O6_32
REMARK                            x       y       z     vdW  Elec       q    Type
REMARK                         _______ _______ _______ _____ _____    ______ ____
ROOT
ATOM      1  C9  UNL     1      -0.186  -8.428   4.421  0.00  0.00    +0.045 A 
ATOM      2  C10 UNL     1      -0.709  -9.047   3.288  0.00  0.00    +0.055 A 
ATOM      3  C11 UNL     1      -0.237  -8.739   2.013  0.00  0.00    +0.140 A 
ATOM      4  C12 UNL     1       0.757  -7.748   1.854  0.00  0.00    +0.064 A 
ATOM      5  C13 UNL     1       1.267  -7.070   2.997  0.00  0.00    +0.057 A 
ATOM      6  C14 UNL     1       0.857  -7.478   4.292  0.00  0.00    +0.056 A 
ATOM      7  C15 UNL     1       1.562  -6.928   5.488  0.00  0.00    +0.196 C 
ATOM      8  O2  UNL     1       1.375  -7.433   6.628  0.00  0.00    -0.287 OA
ATOM      9  C16 UNL     1       2.540  -5.829   5.342  0.00  0.00    +0.033 A 
ATOM     10  C17 UNL     1       3.175  -5.280   6.472  0.00  0.00    +0.012 A 
ATOM     11  C18 UNL     1       4.099  -4.243   6.330  0.00  0.00    +0.001 A 
ATOM     12  C19 UNL     1       4.398  -3.743   5.063  0.00  0.00    +0.001 A 
ATOM     13  C20 UNL     1       3.774  -4.278   3.934  0.00  0.00    +0.012 A 
ATOM     14  C21 UNL     1       2.842  -5.326   4.064  0.00  0.00    +0.033 A 
ATOM     15  C22 UNL     1       2.171  -5.888   2.871  0.00  0.00    +0.196 C 
ATOM     16  O3  UNL     1       2.315  -5.306   1.762  0.00  0.00    -0.287 OA
ENDROOT
BRANCH   4  17
ATOM     17  N3  UNL     1       1.289  -7.482   0.547  0.00  0.00    -0.356 N 
ATOM     18  H14 UNL     1       0.708  -7.583  -0.313  0.00  0.00    +0.142 HD
ATOM     19  H15 UNL     1       2.306  -7.293   0.412  0.00  0.00    +0.142 HD
ENDBRANCH   4  17
BRANCH   3  20
ATOM     20  S1  UNL     1      -0.897  -9.628   0.632  0.00  0.00    +0.111 S 
ATOM     21  O4  UNL     1      -1.761  -8.710  -0.187  0.00  0.00    -0.142 OA
ATOM     22  O5  UNL     1       0.229 -10.158  -0.211  0.00  0.00    -0.142 OA
BRANCH  20  23
ATOM     23  O6  UNL     1      -1.827 -10.925   1.165  0.00  0.00    -0.250 OA
ATOM     24  H16 UNL     1      -2.164 -11.355   0.338  0.00  0.00    +0.245 HD
ENDBRANCH  20  23
ENDBRANCH   3  20
BRANCH   1  25
ATOM     25  N2  UNL     1      -0.755  -8.766   5.695  0.00  0.00    -0.314 N 
ATOM     26  H8  UNL     1      -1.091  -7.979   6.295  0.00  0.00    +0.152 HD
BRANCH  25  30
ATOM     27  C3  UNL     1      -0.502 -12.676   7.370  0.00  0.00    +0.036 A 
ATOM     28  C4  UNL     1       0.501 -12.192   6.517  0.00  0.00    +0.025 A 
ATOM     29  C5  UNL     1       0.406 -10.910   5.969  0.00  0.00    +0.025 A 
ATOM     30  C6  UNL     1      -0.690 -10.087   6.268  0.00  0.00    +0.031 A 
ATOM     31  C7  UNL     1      -1.698 -10.574   7.120  0.00  0.00    +0.025 A 
ATOM     32  C8  UNL     1      -1.603 -11.856   7.668  0.00  0.00    +0.025 A 
BRANCH  27  36
ATOM     33  C1  UNL     1      -0.984 -16.496   7.877  0.00  0.00    +0.109 C 
ATOM     34  C2  UNL     1      -1.147 -15.092   7.375  0.00  0.00    +0.216 C 
ATOM     35  O1  UNL     1      -1.969 -14.879   6.441  0.00  0.00    -0.276 OA
ATOM     36  N1  UNL     1      -0.398 -13.995   7.943  0.00  0.00    -0.275 N 
ATOM     37  C23 UNL     1       0.370 -14.180   9.179  0.00  0.00    +0.138 C 
ENDBRANCH  27  36
ENDBRANCH  25  30
ENDBRANCH   1  25
TORSDOF 6
ENDMDL
MODEL 7
REMARK minimizedAffinity -6.97603273
REMARK minimizedRMSD -1
REMARK  Name = /home/tchapet/Post-Doc/ARTICLES-DOSSIERS-DES-ARTICLES-EN-REDACTION/NOUVELS-AXES-DE-RECHERCHE-A-REGARDER-URGEMMENT/ARTICLES-EN-REDACTIONS/ARTICLE_MVOTO/Paper2_JCIM/docking_rerun/ligands/17574.pdb
REMARK  8 active torsions:
REMARK  status: ('A' for Active; 'I' for Inactive)
REMARK    1  A    between atoms: C1_1  and  C2_2
REMARK    2  A    between atoms: N1_4  and  C3_5
REMARK    3  A    between atoms: N1_4  and  C23_33
REMARK    4  A    between atoms: C6_8  and  N2_11
REMARK    5  A    between atoms: N2_11  and  C9_12
REMARK    6  A    between atoms: C11_14  and  S1_29
REMARK    7  A    between atoms: C12_15  and  N3_28
REMARK    8  A    between atoms: S1_29  and  O6_32
REMARK                            x       y       z     vdW  Elec       q    Type
REMARK                         _______ _______ _______ _____ _____    ______ ____
ROOT
ATOM      1  C9  UNL     1     -23.369 -30.041   2.934  0.00  0.00    +0.045 A 
ATOM      2  C10 UNL     1     -22.257 -29.219   3.107  0.00  0.00    +0.055 A 
ATOM      3  C11 UNL     1     -20.990 -29.621   2.689  0.00  0.00    +0.140 A 
ATOM      4  C12 UNL     1     -20.811 -30.902   2.123  0.00  0.00    +0.064 A 
ATOM      5  C13 UNL     1     -21.928 -31.774   1.985  0.00  0.00    +0.057 A 
ATOM      6  C14 UNL     1     -23.227 -31.304   2.309  0.00  0.00    +0.056 A 
ATOM      7  C15 UNL     1     -24.415 -32.132   1.947  0.00  0.00    +0.196 C 
ATOM      8  O2  UNL     1     -25.577 -31.648   2.017  0.00  0.00    -0.287 OA
ATOM      9  C16 UNL     1     -24.242 -33.508   1.436  0.00  0.00    +0.033 A 
ATOM     10  C17 UNL     1     -25.361 -34.307   1.133  0.00  0.00    +0.012 A 
ATOM     11  C18 UNL     1     -25.193 -35.606   0.650  0.00  0.00    +0.001 A 
ATOM     12  C19 UNL     1     -23.911 -36.122   0.465  0.00  0.00    +0.001 A 
ATOM     13  C20 UNL     1     -22.792 -35.341   0.762  0.00  0.00    +0.012 A 
ATOM     14  C21 UNL     1     -22.948 -34.028   1.248  0.00  0.00    +0.033 A 
ATOM     15  C22 UNL     1     -21.766 -33.201   1.574  0.00  0.00    +0.196 C 
ATOM     16  O3  UNL     1     -20.627 -33.743   1.575  0.00  0.00    -0.287 OA
ENDROOT
BRANCH   4  17
ATOM     17  N3  UNL     1     -19.517 -31.287   1.632  0.00  0.00    -0.356 N 
ATOM     18  H14 UNL     1     -18.638 -30.936   2.070  0.00  0.00    +0.142 HD
ATOM     19  H15 UNL     1     -19.422 -31.836   0.750  0.00  0.00    +0.142 HD
ENDBRANCH   4  17
BRANCH   3  20
ATOM     20  S1  UNL     1     -19.642 -28.486   2.871  0.00  0.00    +0.111 S 
ATOM     21  O4  UNL     1     -20.081 -27.321   3.714  0.00  0.00    -0.142 OA
ATOM     22  O5  UNL     1     -18.483 -29.183   3.525  0.00  0.00    -0.142 OA
BRANCH  20  23
ATOM     23  O6  UNL     1     -19.151 -27.920   1.365  0.00  0.00    -0.250 OA
ATOM     24  H16 UNL     1     -18.411 -27.289   1.558  0.00  0.00    +0.245 HD
ENDBRANCH  20  23
ENDBRANCH   3  20
BRANCH   1  25
ATOM     25  N2  UNL     1     -24.633 -29.574   3.430  0.00  0.00    -0.314 N 
ATOM     26  H8  UNL     1     -25.181 -28.931   2.815  0.00  0.00    +0.152 HD
BRANCH  25  30
ATOM     27  C3  UNL     1     -25.972 -30.200   7.426  0.00  0.00    +0.036 A 
ATOM     28  C4  UNL     1     -26.589 -30.854   6.350  0.00  0.00    +0.025 A 
ATOM     29  C5  UNL     1     -26.146 -30.639   5.043  0.00  0.00    +0.025 A 
ATOM     30  C6  UNL     1     -25.074 -29.770   4.788  0.00  0.00    +0.031 A 
ATOM     31  C7  UNL     1     -24.459 -29.109   5.868  0.00  0.00    +0.025 A 
ATOM     32  C8  UNL     1     -24.902 -29.326   7.175  0.00  0.00    +0.025 A 
BRANCH  27  36
ATOM     33  C1  UNL     1     -27.984 -29.832  10.728  0.00  0.00    +0.109 C 
ATOM     34  C2  UNL     1     -27.413 -29.560   9.368  0.00  0.00    +0.216 C 
ATOM     35  O1  UNL     1     -27.809 -28.538   8.743  0.00  0.00    -0.276 OA
ATOM     36  N1  UNL     1     -26.424 -30.432   8.776  0.00  0.00    -0.275 N 
ATOM     37  C23 UNL     1     -25.777 -31.476   9.578  0.00  0.00    +0.138 C 
ENDBRANCH  27  36
ENDBRANCH  25  30
ENDBRANCH   1  25
TORSDOF 6
ENDMDL
MODEL 8
REMARK minimizedAffinity -6.91832304
REMARK minimizedRMSD -1
REMARK  Name = /home/tchapet/Post-Doc/ARTICLES-DOSSIERS-DES-ARTICLES-EN-REDACTION/NOUVELS-AXES-DE-RECHERCHE-A-REGARDER-URGEMMENT/ARTICLES-EN-REDACTIONS/ARTICLE_MVOTO/Paper2_JCIM/docking_rerun/ligands/17574.pdb
REMARK  8 active torsions:
REMARK  status: ('A' for Active; 'I' for Inactive)
REMARK    1  A    between atoms: C1_1  and  C2_2
REMARK    2  A    between atoms: N1_4  and  C3_5
REMARK    3  A    between atoms: N1_4  and  C23_33
REMARK    4  A    between atoms: C6_8  and  N2_11
REMARK    5  A    between atoms: N2_11  and  C9_12
REMARK    6  A    between atoms: C11_14  and  S1_29
REMARK    7  A    between atoms: C12_15  and  N3_28
REMARK    8  A    between atoms: S1_29  and  O6_32
REMARK                            x       y       z     vdW  Elec       q    Type
REMARK                         _______ _______ _______ _____ _____    ______ ____
ROOT
ATOM      1  C9  UNL     1     -18.947  -1.205   8.236  0.00  0.00    +0.045 A 
ATOM      2  C10 UNL     1     -18.540  -0.962   9.547  0.00  0.00    +0.055 A 
ATOM      3  C11 UNL     1     -19.333  -1.338  10.630  0.00  0.00    +0.140 A 
ATOM      4  C12 UNL     1     -20.593  -1.934  10.404  0.00  0.00    +0.064 A 
ATOM      5  C13 UNL     1     -21.045  -2.144   9.070  0.00  0.00    +0.057 A 
ATOM      6  C14 UNL     1     -20.177  -1.860   7.985  0.00  0.00    +0.056 A 
ATOM      7  C15 UNL     1     -20.561  -2.296   6.609  0.00  0.00    +0.196 C 
ATOM      8  O2  UNL     1     -19.721  -2.259   5.670  0.00  0.00    -0.287 OA
ATOM      9  C16 UNL     1     -21.910  -2.839   6.345  0.00  0.00    +0.033 A 
ATOM     10  C17 UNL     1     -22.290  -3.211   5.041  0.00  0.00    +0.012 A 
ATOM     11  C18 UNL     1     -23.564  -3.725   4.795  0.00  0.00    +0.001 A 
ATOM     12  C19 UNL     1     -24.472  -3.873   5.843  0.00  0.00    +0.001 A 
ATOM     13  C20 UNL     1     -24.109  -3.506   7.140  0.00  0.00    +0.012 A 
ATOM     14  C21 UNL     1     -22.825  -2.989   7.402  0.00  0.00    +0.033 A 
ATOM     15  C22 UNL     1     -22.440  -2.589   8.773  0.00  0.00    +0.196 C 
ATOM     16  O3  UNL     1     -23.327  -2.558   9.669  0.00  0.00    -0.287 OA
ENDROOT
BRANCH   4  17
ATOM     17  N3  UNL     1     -21.377  -2.382  11.521  0.00  0.00    -0.356 N 
ATOM     18  H14 UNL     1     -21.342  -1.898  12.444  0.00  0.00    +0.142 HD
ATOM     19  H15 UNL     1     -21.913  -3.275  11.473  0.00  0.00    +0.142 HD
ENDBRANCH   4  17
BRANCH   3  20
ATOM     20  S1  UNL     1     -18.710  -1.067  12.265  0.00  0.00    +0.111 S 
ATOM     21  O4  UNL     1     -19.713  -0.277  13.057  0.00  0.00    -0.142 OA
ATOM     22  O5  UNL     1     -18.457  -2.390  12.933  0.00  0.00    -0.142 OA
BRANCH  20  23
ATOM     23  O6  UNL     1     -17.263  -0.210  12.202  0.00  0.00    -0.250 OA
ATOM     24  H16 UNL     1     -16.994  -0.093  13.149  0.00  0.00    +0.245 HD
ENDBRANCH  20  23
ENDBRANCH   3  20
BRANCH   1  25
ATOM     25  N2  UNL     1     -18.096  -0.748   7.173  0.00  0.00    -0.314 N 
ATOM     26  H8  UNL     1     -17.754  -1.463   6.492  0.00  0.00    +0.152 HD
BRANCH  25  30
ATOM     27  C3  UNL     1     -16.357   3.139   7.023  0.00  0.00    +0.036 A 
ATOM     28  C4  UNL     1     -15.554   1.996   7.150  0.00  0.00    +0.025 A 
ATOM     29  C5  UNL     1     -16.134   0.726   7.203  0.00  0.00    +0.025 A 
ATOM     30  C6  UNL     1     -17.527   0.575   7.125  0.00  0.00    +0.031 A 
ATOM     31  C7  UNL     1     -18.333   1.723   7.004  0.00  0.00    +0.025 A 
ATOM     32  C8  UNL     1     -17.752   2.992   6.949  0.00  0.00    +0.025 A 
BRANCH  27  36
ATOM     33  C1  UNL     1     -14.670   6.453   8.142  0.00  0.00    +0.109 C 
ATOM     34  C2  UNL     1     -15.391   5.139   8.173  0.00  0.00    +0.216 C 
ATOM     35  O1  UNL     1     -15.688   4.642   9.295  0.00  0.00    -0.276 OA
ATOM     36  N1  UNL     1     -15.756   4.448   6.958  0.00  0.00    -0.275 N 
ATOM     37  C23 UNL     1     -15.641   5.119   5.658  0.00  0.00    +0.138 C 
ENDBRANCH  27  36
ENDBRANCH  25  30
ENDBRANCH   1  25
TORSDOF 6
ENDMDL
MODEL 9
REMARK minimizedAffinity -6.90825033
REMARK minimizedRMSD -1
REMARK  Name = /home/tchapet/Post-Doc/ARTICLES-DOSSIERS-DES-ARTICLES-EN-REDACTION/NOUVELS-AXES-DE-RECHERCHE-A-REGARDER-URGEMMENT/ARTICLES-EN-REDACTIONS/ARTICLE_MVOTO/Paper2_JCIM/docking_rerun/ligands/17574.pdb
REMARK  8 active torsions:
REMARK  status: ('A' for Active; 'I' for Inactive)
REMARK    1  A    between atoms: C1_1  and  C2_2
REMARK    2  A    between atoms: N1_4  and  C3_5
REMARK    3  A    between atoms: N1_4  and  C23_33
REMARK    4  A    between atoms: C6_8  and  N2_11
REMARK    5  A    between atoms: N2_11  and  C9_12
REMARK    6  A    between atoms: C11_14  and  S1_29
REMARK    7  A    between atoms: C12_15  and  N3_28
REMARK    8  A    between atoms: S1_29  and  O6_32
REMARK                            x       y       z     vdW  Elec       q    Type
REMARK                         _______ _______ _______ _____ _____    ______ ____
ROOT
ATOM      1  C9  UNL     1       3.070  -4.520   3.171  0.00  0.00    +0.045 A 
ATOM      2  C10 UNL     1       2.224  -4.987   2.166  0.00  0.00    +0.055 A 
ATOM      3  C11 UNL     1       2.174  -4.369   0.918  0.00  0.00    +0.140 A 
ATOM      4  C12 UNL     1       2.957  -3.219   0.673  0.00  0.00    +0.064 A 
ATOM      5  C13 UNL     1       3.790  -2.699   1.705  0.00  0.00    +0.057 A 
ATOM      6  C14 UNL     1       3.913  -3.408   2.928  0.00  0.00    +0.056 A 
ATOM      7  C15 UNL     1       4.956  -2.991   3.911  0.00  0.00    +0.196 C 
ATOM      8  O2  UNL     1       5.238  -3.729   4.895  0.00  0.00    -0.287 OA
ATOM      9  C16 UNL     1       5.720  -1.742   3.709  0.00  0.00    +0.033 A 
ATOM     10  C17 UNL     1       6.674  -1.324   4.656  0.00  0.00    +0.012 A 
ATOM     11  C18 UNL     1       7.395  -0.145   4.462  0.00  0.00    +0.001 A 
ATOM     12  C19 UNL     1       7.171   0.631   3.325  0.00  0.00    +0.001 A 
ATOM     13  C20 UNL     1       6.227   0.229   2.378  0.00  0.00    +0.012 A 
ATOM     14  C21 UNL     1       5.495  -0.961   2.562  0.00  0.00    +0.033 A 
ATOM     15  C22 UNL     1       4.486  -1.385   1.566  0.00  0.00    +0.196 C 
ATOM     16  O3  UNL     1       4.169  -0.586   0.644  0.00  0.00    -0.287 OA
ENDROOT
BRANCH   4  17
ATOM     17  N3  UNL     1       2.955  -2.625  -0.634  0.00  0.00    -0.356 N 
ATOM     18  H14 UNL     1       2.112  -2.652  -1.247  0.00  0.00    +0.142 HD
ATOM     19  H15 UNL     1       3.834  -2.252  -1.053  0.00  0.00    +0.142 HD
ENDBRANCH   4  17
BRANCH   3  20
ATOM     20  S1  UNL     1       1.134  -5.071  -0.330  0.00  0.00    +0.111 S 
ATOM     21  O4  UNL     1       1.974  -5.487  -1.505  0.00  0.00    -0.142 OA
ATOM     22  O5  UNL     1       0.410  -6.263   0.230  0.00  0.00    -0.142 OA
BRANCH  20  23
ATOM     23  O6  UNL     1      -0.004  -3.942  -0.843  0.00  0.00    -0.250 OA
ATOM     24  H16 UNL     1      -0.530  -4.409  -1.541  0.00  0.00    +0.245 HD
ENDBRANCH  20  23
ENDBRANCH   3  20
BRANCH   1  25
ATOM     25  N2  UNL     1       3.032  -5.184   4.444  0.00  0.00    -0.314 N 
ATOM     26  H8  UNL     1       3.785  -4.949   5.129  0.00  0.00    +0.152 HD
BRANCH  25  30
ATOM     27  C3  UNL     1       0.395  -8.417   5.311  0.00  0.00    +0.036 A 
ATOM     28  C4  UNL     1      -0.029  -7.086   5.445  0.00  0.00    +0.025 A 
ATOM     29  C5  UNL     1       0.845  -6.033   5.163  0.00  0.00    +0.025 A 
ATOM     30  C6  UNL     1       2.157  -6.290   4.736  0.00  0.00    +0.031 A 
ATOM     31  C7  UNL     1       2.583  -7.625   4.607  0.00  0.00    +0.025 A 
ATOM     32  C8  UNL     1       1.709  -8.678   4.888  0.00  0.00    +0.025 A 
BRANCH  27  36
ATOM     33  C1  UNL     1      -1.665 -11.047   7.292  0.00  0.00    +0.109 C 
ATOM     34  C2  UNL     1      -0.657  -9.992   6.944  0.00  0.00    +0.216 C 
ATOM     35  O1  UNL     1       0.081  -9.538   7.863  0.00  0.00    -0.276 OA
ATOM     36  N1  UNL     1      -0.511  -9.502   5.592  0.00  0.00    -0.275 N 
ATOM     37  C23 UNL     1      -1.179 -10.184   4.479  0.00  0.00    +0.138 C 
ENDBRANCH  27  36
ENDBRANCH  25  30
ENDBRANCH   1  25
TORSDOF 6
ENDMDL
