MODEL 1
REMARK minimizedAffinity -7.20187855
REMARK minimizedRMSD -1
REMARK  Name = /home/tchapet/Post-Doc/ARTICLES-DOSSIERS-DES-ARTICLES-EN-REDACTION/NOUVELS-AXES-DE-RECHERCHE-A-REGARDER-URGEMMENT/ARTICLES-EN-REDACTIONS/ARTICLE_MVOTO/Paper2_JCIM/docking_rerun/ligands/17574.pdb
REMARK  8 active torsions:
REMARK  status: ('A' for Active; 'I' for Inactive)
REMARK    1  A    between atoms: C1_1  and  C2_2
REMARK    2  A    between atoms: N1_4  and  C3_5
REMARK    3  A    between atoms: N1_4  and  C23_33
REMARK    4  A    between atoms: C6_8  and  N2_11
REMARK    5  A    between atoms: N2_11  and  C9_12
REMARK    6  A    between atoms: C11_14  and  S1_29
REMARK    7  A    between atoms: C12_15  and  N3_28
REMARK    8  A    between atoms: S1_29  and  O6_32
REMARK                            x       y       z     vdW  Elec       q    Type
REMARK                         _______ _______ _______ _____ _____    ______ ____
ROOT
ATOM      1  C9  UNL     1      10.372  -8.983  29.530  0.00  0.00    +0.045 A 
ATOM      2  C10 UNL     1       9.919  -7.948  30.346  0.00  0.00    +0.055 A 
ATOM      3  C11 UNL     1       8.599  -7.902  30.789  0.00  0.00    +0.140 A 
ATOM      4  C12 UNL     1       7.683  -8.894  30.372  0.00  0.00    +0.064 A 
ATOM      5  C13 UNL     1       8.118  -9.932  29.499  0.00  0.00    +0.057 A 
ATOM      6  C14 UNL     1       9.489 -10.025  29.152  0.00  0.00    +0.056 A 
ATOM      7  C15 UNL     1       9.979 -11.238  28.432  0.00  0.00    +0.196 C 
ATOM      8  O2  UNL     1      11.216 -11.451  28.309  0.00  0.00    -0.287 OA
ATOM      9  C16 UNL     1       9.024 -12.239  27.913  0.00  0.00    +0.033 A 
ATOM     10  C17 UNL     1       9.480 -13.362  27.197  0.00  0.00    +0.012 A 
ATOM     11  C18 UNL     1       8.574 -14.306  26.710  0.00  0.00    +0.001 A 
ATOM     12  C19 UNL     1       7.207 -14.140  26.929  0.00  0.00    +0.001 A 
ATOM     13  C20 UNL     1       6.741 -13.030  27.636  0.00  0.00    +0.012 A 
ATOM     14  C21 UNL     1       7.645 -12.072  28.136  0.00  0.00    +0.033 A 
ATOM     15  C22 UNL     1       7.155 -10.889  28.876  0.00  0.00    +0.196 C 
ATOM     16  O3  UNL     1       5.915 -10.662  28.906  0.00  0.00    -0.287 OA
ENDROOT
BRANCH   4  17
ATOM     17  N3  UNL     1       6.342  -8.882  30.885  0.00  0.00    -0.356 N 
ATOM     18  H14 UNL     1       5.857  -7.992  31.131  0.00  0.00    +0.142 HD
ATOM     19  H15 UNL     1       5.859  -9.771  31.137  0.00  0.00    +0.142 HD
ENDBRANCH   4  17
BRANCH   3  20
ATOM     20  S1  UNL     1       8.122  -6.597  31.887  0.00  0.00    +0.111 S 
ATOM     21  O4  UNL     1       9.220  -5.572  31.951  0.00  0.00    -0.142 OA
ATOM     22  O5  UNL     1       6.855  -5.960  31.392  0.00  0.00    -0.142 OA
BRANCH  20  23
ATOM     23  O6  UNL     1       7.851  -7.206  33.432  0.00  0.00    -0.250 OA
ATOM     24  H16 UNL     1       7.604  -6.417  33.979  0.00  0.00    +0.245 HD
ENDBRANCH  20  23
ENDBRANCH   3  20
BRANCH   1  25
ATOM     25  N2  UNL     1      11.734  -8.937  29.079  0.00  0.00    -0.314 N 
ATOM     26  H8  UNL     1      12.319  -9.789  29.229  0.00  0.00    +0.152 HD
BRANCH  25  30
ATOM     27  C3  UNL     1      13.612  -5.361  27.719  0.00  0.00    +0.036 A 
ATOM     28  C4  UNL     1      12.710  -6.057  26.900  0.00  0.00    +0.025 A 
ATOM     29  C5  UNL     1      12.103  -7.231  27.354  0.00  0.00    +0.025 A 
ATOM     30  C6  UNL     1      12.382  -7.728  28.635  0.00  0.00    +0.031 A 
ATOM     31  C7  UNL     1      13.291  -7.033  29.455  0.00  0.00    +0.025 A 
ATOM     32  C8  UNL     1      13.897  -5.859  29.002  0.00  0.00    +0.025 A 
BRANCH  27  36
ATOM     33  C1  UNL     1      14.376  -1.579  27.282  0.00  0.00    +0.109 C 
ATOM     34  C2  UNL     1      13.699  -2.863  27.660  0.00  0.00    +0.216 C 
ATOM     35  O1  UNL     1      12.636  -2.805  28.338  0.00  0.00    -0.276 OA
ATOM     36  N1  UNL     1      14.229  -4.144  27.254  0.00  0.00    -0.275 N 
ATOM     37  C23 UNL     1      15.313  -4.222  26.269  0.00  0.00    +0.138 C 
ENDBRANCH  27  36
ENDBRANCH  25  30
ENDBRANCH   1  25
TORSDOF 6
ENDMDL
MODEL 2
REMARK minimizedAffinity -7.17171431
REMARK minimizedRMSD -1
REMARK  Name = /home/tchapet/Post-Doc/ARTICLES-DOSSIERS-DES-ARTICLES-EN-REDACTION/NOUVELS-AXES-DE-RECHERCHE-A-REGARDER-URGEMMENT/ARTICLES-EN-REDACTIONS/ARTICLE_MVOTO/Paper2_JCIM/docking_rerun/ligands/17574.pdb
REMARK  8 active torsions:
REMARK  status: ('A' for Active; 'I' for Inactive)
REMARK    1  A    between atoms: C1_1  and  C2_2
REMARK    2  A    between atoms: N1_4  and  C3_5
REMARK    3  A    between atoms: N1_4  and  C23_33
REMARK    4  A    between atoms: C6_8  and  N2_11
REMARK    5  A    between atoms: N2_11  and  C9_12
REMARK    6  A    between atoms: C11_14  and  S1_29
REMARK    7  A    between atoms: C12_15  and  N3_28
REMARK    8  A    between atoms: S1_29  and  O6_32
REMARK                            x       y       z     vdW  Elec       q    Type
REMARK                         _______ _______ _______ _____ _____    ______ ____
ROOT
ATOM      1  C9  UNL     1      -0.154 -17.160  12.383  0.00  0.00    +0.045 A 
ATOM      2  C10 UNL     1      -1.351 -16.651  11.882  0.00  0.00    +0.055 A 
ATOM      3  C11 UNL     1      -1.727 -16.863  10.557  0.00  0.00    +0.140 A 
ATOM      4  C12 UNL     1      -0.866 -17.566   9.687  0.00  0.00    +0.064 A 
ATOM      5  C13 UNL     1       0.383 -18.050  10.170  0.00  0.00    +0.057 A 
ATOM      6  C14 UNL     1       0.697 -17.924  11.547  0.00  0.00    +0.056 A 
ATOM      7  C15 UNL     1       1.892 -18.633  12.092  0.00  0.00    +0.196 C 
ATOM      8  O2  UNL     1       2.069 -18.724  13.338  0.00  0.00    -0.287 OA
ATOM      9  C16 UNL     1       2.849 -19.298  11.182  0.00  0.00    +0.033 A 
ATOM     10  C17 UNL     1       3.999 -19.931  11.689  0.00  0.00    +0.012 A 
ATOM     11  C18 UNL     1       4.900 -20.558  10.827  0.00  0.00    +0.001 A 
ATOM     12  C19 UNL     1       4.665 -20.560   9.453  0.00  0.00    +0.001 A 
ATOM     13  C20 UNL     1       3.529 -19.934   8.936  0.00  0.00    +0.012 A 
ATOM     14  C21 UNL     1       2.611 -19.300   9.796  0.00  0.00    +0.033 A 
ATOM     15  C22 UNL     1       1.411 -18.627   9.252  0.00  0.00    +0.196 C 
ATOM     16  O3  UNL     1       1.310 -18.481   8.004  0.00  0.00    -0.287 OA
ENDROOT
BRANCH   4  17
ATOM     17  N3  UNL     1      -1.287 -17.842   8.342  0.00  0.00    -0.356 N 
ATOM     18  H14 UNL     1      -1.912 -17.191   7.819  0.00  0.00    +0.142 HD
ATOM     19  H15 UNL     1      -1.073 -18.759   7.893  0.00  0.00    +0.142 HD
ENDBRANCH   4  17
BRANCH   3  20
ATOM     20  S1  UNL     1      -3.300 -16.252  10.019  0.00  0.00    +0.111 S 
ATOM     21  O4  UNL     1      -4.131 -17.395   9.507  0.00  0.00    -0.142 OA
ATOM     22  O5  UNL     1      -4.000 -15.584  11.169  0.00  0.00    -0.142 OA
BRANCH  20  23
ATOM     23  O6  UNL     1      -3.096 -15.126   8.786  0.00  0.00    -0.250 OA
ATOM     24  H16 UNL     1      -4.014 -14.848   8.539  0.00  0.00    +0.245 HD
ENDBRANCH  20  23
ENDBRANCH   3  20
BRANCH   1  25
ATOM     25  N2  UNL     1       0.185 -16.861  13.746  0.00  0.00    -0.314 N 
ATOM     26  H8  UNL     1       0.586 -17.636  14.322  0.00  0.00    +0.152 HD
BRANCH  25  30
ATOM     27  C3  UNL     1      -0.953 -13.277  15.750  0.00  0.00    +0.036 A 
ATOM     28  C4  UNL     1      -1.419 -14.525  16.188  0.00  0.00    +0.025 A 
ATOM     29  C5  UNL     1      -1.044 -15.694  15.521  0.00  0.00    +0.025 A 
ATOM     30  C6  UNL     1      -0.192 -15.638  14.408  0.00  0.00    +0.031 A 
ATOM     31  C7  UNL     1       0.272 -14.385  13.966  0.00  0.00    +0.025 A 
ATOM     32  C8  UNL     1      -0.103 -13.216  14.634  0.00  0.00    +0.025 A 
BRANCH  27  36
ATOM     33  C1  UNL     1      -0.744 -10.165  18.065  0.00  0.00    +0.109 C 
ATOM     34  C2  UNL     1      -0.429 -11.473  17.401  0.00  0.00    +0.216 C 
ATOM     35  O1  UNL     1       0.649 -12.056  17.702  0.00  0.00    -0.276 OA
ATOM     36  N1  UNL     1      -1.332 -12.072  16.445  0.00  0.00    -0.275 N 
ATOM     37  C23 UNL     1      -2.687 -11.540  16.268  0.00  0.00    +0.138 C 
ENDBRANCH  27  36
ENDBRANCH  25  30
ENDBRANCH   1  25
TORSDOF 6
ENDMDL
MODEL 3
REMARK minimizedAffinity -7.03820705
REMARK minimizedRMSD -1
REMARK  Name = /home/tchapet/Post-Doc/ARTICLES-DOSSIERS-DES-ARTICLES-EN-REDACTION/NOUVELS-AXES-DE-RECHERCHE-A-REGARDER-URGEMMENT/ARTICLES-EN-REDACTIONS/ARTICLE_MVOTO/Paper2_JCIM/docking_rerun/ligands/17574.pdb
REMARK  8 active torsions:
REMARK  status: ('A' for Active; 'I' for Inactive)
REMARK    1  A    between atoms: C1_1  and  C2_2
REMARK    2  A    between atoms: N1_4  and  C3_5
REMARK    3  A    between atoms: N1_4  and  C23_33
REMARK    4  A    between atoms: C6_8  and  N2_11
REMARK    5  A    between atoms: N2_11  and  C9_12
REMARK    6  A    between atoms: C11_14  and  S1_29
REMARK    7  A    between atoms: C12_15  and  N3_28
REMARK    8  A    between atoms: S1_29  and  O6_32
REMARK                            x       y       z     vdW  Elec       q    Type
REMARK                         _______ _______ _______ _____ _____    ______ ____
ROOT
ATOM      1  C9  UNL     1      14.109  -3.543   3.344  0.00  0.00    +0.045 A 
ATOM      2  C10 UNL     1      14.074  -2.634   2.289  0.00  0.00    +0.055 A 
ATOM      3  C11 UNL     1      13.990  -1.262   2.520  0.00  0.00    +0.140 A 
ATOM      4  C12 UNL     1      13.891  -0.778   3.843  0.00  0.00    +0.064 A 
ATOM      5  C13 UNL     1      13.876  -1.697   4.931  0.00  0.00    +0.057 A 
ATOM      6  C14 UNL     1      14.077  -3.079   4.683  0.00  0.00    +0.056 A 
ATOM      7  C15 UNL     1      14.292  -4.004   5.834  0.00  0.00    +0.196 C 
ATOM      8  O2  UNL     1      14.693  -5.184   5.639  0.00  0.00    -0.287 OA
ATOM      9  C16 UNL     1      14.105  -3.530   7.221  0.00  0.00    +0.033 A 
ATOM     10  C17 UNL     1      14.266  -4.411   8.308  0.00  0.00    +0.012 A 
ATOM     11  C18 UNL     1      14.089  -3.959   9.617  0.00  0.00    +0.001 A 
ATOM     12  C19 UNL     1      13.750  -2.628   9.857  0.00  0.00    +0.001 A 
ATOM     13  C20 UNL     1      13.586  -1.744   8.788  0.00  0.00    +0.012 A 
ATOM     14  C21 UNL     1      13.764  -2.187   7.463  0.00  0.00    +0.033 A 
ATOM     15  C22 UNL     1      13.581  -1.256   6.328  0.00  0.00    +0.196 C 
ATOM     16  O3  UNL     1      13.099  -0.113   6.551  0.00  0.00    -0.287 OA
ENDROOT
BRANCH   4  17
ATOM     17  N3  UNL     1      13.873   0.638   4.081  0.00  0.00    -0.356 N 
ATOM     18  H14 UNL     1      13.452   1.303   3.397  0.00  0.00    +0.142 HD
ATOM     19  H15 UNL     1      14.386   1.050   4.890  0.00  0.00    +0.142 HD
ENDBRANCH   4  17
BRANCH   3  20
ATOM     20  S1  UNL     1      14.031  -0.169   1.128  0.00  0.00    +0.111 S 
ATOM     21  O4  UNL     1      14.152  -0.973  -0.136  0.00  0.00    -0.142 OA
ATOM     22  O5  UNL     1      12.772   0.651   1.095  0.00  0.00    -0.142 OA
BRANCH  20  23
ATOM     23  O6  UNL     1      15.348   0.872   1.243  0.00  0.00    -0.250 OA
ATOM     24  H16 UNL     1      15.302   1.434   0.428  0.00  0.00    +0.245 HD
ENDBRANCH  20  23
ENDBRANCH   3  20
BRANCH   1  25
ATOM     25  N2  UNL     1      14.151  -4.943   3.025  0.00  0.00    -0.314 N 
ATOM     26  H8  UNL     1      13.986  -5.618   3.805  0.00  0.00    +0.152 HD
BRANCH  25  30
ATOM     27  C3  UNL     1      15.571  -6.471  -0.691  0.00  0.00    +0.036 A 
ATOM     28  C4  UNL     1      16.442  -6.296   0.396  0.00  0.00    +0.025 A 
ATOM     29  C5  UNL     1      15.967  -5.790   1.608  0.00  0.00    +0.025 A 
ATOM     30  C6  UNL     1      14.613  -5.454   1.759  0.00  0.00    +0.031 A 
ATOM     31  C7  UNL     1      13.742  -5.624   0.667  0.00  0.00    +0.025 A 
ATOM     32  C8  UNL     1      14.217  -6.131  -0.544  0.00  0.00    +0.025 A 
BRANCH  27  36
ATOM     33  C1  UNL     1      16.227  -8.950  -3.607  0.00  0.00    +0.109 C 
ATOM     34  C2  UNL     1      15.826  -8.389  -2.275  0.00  0.00    +0.216 C 
ATOM     35  O1  UNL     1      15.282  -9.159  -1.437  0.00  0.00    -0.276 OA
ATOM     36  N1  UNL     1      16.060  -7.003  -1.938  0.00  0.00    -0.275 N 
ATOM     37  C23 UNL     1      16.904  -6.162  -2.794  0.00  0.00    +0.138 C 
ENDBRANCH  27  36
ENDBRANCH  25  30
ENDBRANCH   1  25
TORSDOF 6
ENDMDL
MODEL 4
REMARK minimizedAffinity -6.95430803
REMARK minimizedRMSD -1
REMARK  Name = /home/tchapet/Post-Doc/ARTICLES-DOSSIERS-DES-ARTICLES-EN-REDACTION/NOUVELS-AXES-DE-RECHERCHE-A-REGARDER-URGEMMENT/ARTICLES-EN-REDACTIONS/ARTICLE_MVOTO/Paper2_JCIM/docking_rerun/ligands/17574.pdb
REMARK  8 active torsions:
REMARK  status: ('A' for Active; 'I' for Inactive)
REMARK    1  A    between atoms: C1_1  and  C2_2
REMARK    2  A    between atoms: N1_4  and  C3_5
REMARK    3  A    between atoms: N1_4  and  C23_33
REMARK    4  A    between atoms: C6_8  and  N2_11
REMARK    5  A    between atoms: N2_11  and  C9_12
REMARK    6  A    between atoms: C11_14  and  S1_29
REMARK    7  A    between atoms: C12_15  and  N3_28
REMARK    8  A    between atoms: S1_29  and  O6_32
REMARK                            x       y       z     vdW  Elec       q    Type
REMARK                         _______ _______ _______ _____ _____    ______ ____
ROOT
ATOM      1  C9  UNL     1      -0.240  -2.010   2.094  0.00  0.00    +0.045 A 
ATOM      2  C10 UNL     1       0.464  -3.147   2.488  0.00  0.00    +0.055 A 
ATOM      3  C11 UNL     1      -0.188  -4.237   3.062  0.00  0.00    +0.140 A 
ATOM      4  C12 UNL     1      -1.580  -4.180   3.295  0.00  0.00    +0.064 A 
ATOM      5  C13 UNL     1      -2.306  -3.006   2.943  0.00  0.00    +0.057 A 
ATOM      6  C14 UNL     1      -1.647  -1.955   2.257  0.00  0.00    +0.056 A 
ATOM      7  C15 UNL     1      -2.454  -0.836   1.687  0.00  0.00    +0.196 C 
ATOM      8  O2  UNL     1      -1.929  -0.013   0.888  0.00  0.00    -0.287 OA
ATOM      9  C16 UNL     1      -3.894  -0.717   1.996  0.00  0.00    +0.033 A 
ATOM     10  C17 UNL     1      -4.649   0.360   1.495  0.00  0.00    +0.012 A 
ATOM     11  C18 UNL     1      -6.009   0.469   1.789  0.00  0.00    +0.001 A 
ATOM     12  C19 UNL     1      -6.630  -0.493   2.585  0.00  0.00    +0.001 A 
ATOM     13  C20 UNL     1      -5.893  -1.566   3.090  0.00  0.00    +0.012 A 
ATOM     14  C21 UNL     1      -4.521  -1.688   2.798  0.00  0.00    +0.033 A 
ATOM     15  C22 UNL     1      -3.734  -2.817   3.340  0.00  0.00    +0.196 C 
ATOM     16  O3  UNL     1      -4.265  -3.570   4.201  0.00  0.00    -0.287 OA
ENDROOT
BRANCH   4  17
ATOM     17  N3  UNL     1      -2.258  -5.330   3.823  0.00  0.00    -0.356 N 
ATOM     18  H14 UNL     1      -1.788  -5.992   4.477  0.00  0.00    +0.142 HD
ATOM     19  H15 UNL     1      -3.204  -5.599   3.475  0.00  0.00    +0.142 HD
ENDBRANCH   4  17
BRANCH   3  20
ATOM     20  S1  UNL     1       0.766  -5.674   3.462  0.00  0.00    +0.111 S 
ATOM     21  O4  UNL     1       0.316  -6.826   2.607  0.00  0.00    -0.142 OA
ATOM     22  O5  UNL     1       2.223  -5.394   3.220  0.00  0.00    -0.142 OA
BRANCH  20  23
ATOM     23  O6  UNL     1       0.557  -6.080   5.082  0.00  0.00    -0.250 OA
ATOM     24  H16 UNL     1       1.109  -6.892   5.215  0.00  0.00    +0.245 HD
ENDBRANCH  20  23
ENDBRANCH   3  20
BRANCH   1  25
ATOM     25  N2  UNL     1       0.508  -0.911   1.551  0.00  0.00    -0.314 N 
ATOM     26  H8  UNL     1       0.176   0.053   1.779  0.00  0.00    +0.152 HD
BRANCH  25  30
ATOM     27  C3  UNL     1       3.597  -1.366  -1.348  0.00  0.00    +0.036 A 
ATOM     28  C4  UNL     1       3.892  -0.955  -0.040  0.00  0.00    +0.025 A 
ATOM     29  C5  UNL     1       2.872  -0.804   0.902  0.00  0.00    +0.025 A 
ATOM     30  C6  UNL     1       1.538  -1.067   0.556  0.00  0.00    +0.031 A 
ATOM     31  C7  UNL     1       1.241  -1.474  -0.758  0.00  0.00    +0.025 A 
ATOM     32  C8  UNL     1       2.262  -1.626  -1.699  0.00  0.00    +0.025 A 
BRANCH  27  36
ATOM     33  C1  UNL     1       6.314  -3.055  -3.549  0.00  0.00    +0.109 C 
ATOM     34  C2  UNL     1       5.287  -2.819  -2.482  0.00  0.00    +0.216 C 
ATOM     35  O1  UNL     1       4.989  -3.774  -1.712  0.00  0.00    -0.276 OA
ATOM     36  N1  UNL     1       4.653  -1.532  -2.316  0.00  0.00    -0.275 N 
ATOM     37  C23 UNL     1       5.158  -0.356  -3.032  0.00  0.00    +0.138 C 
ENDBRANCH  27  36
ENDBRANCH  25  30
ENDBRANCH   1  25
TORSDOF 6
ENDMDL
MODEL 5
REMARK minimizedAffinity -6.93723345
REMARK minimizedRMSD -1
REMARK  Name = /home/tchapet/Post-Doc/ARTICLES-DOSSIERS-DES-ARTICLES-EN-REDACTION/NOUVELS-AXES-DE-RECHERCHE-A-REGARDER-URGEMMENT/ARTICLES-EN-REDACTIONS/ARTICLE_MVOTO/Paper2_JCIM/docking_rerun/ligands/17574.pdb
REMARK  8 active torsions:
REMARK  status: ('A' for Active; 'I' for Inactive)
REMARK    1  A    between atoms: C1_1  and  C2_2
REMARK    2  A    between atoms: N1_4  and  C3_5
REMARK    3  A    between atoms: N1_4  and  C23_33
REMARK    4  A    between atoms: C6_8  and  N2_11
REMARK    5  A    between atoms: N2_11  and  C9_12
REMARK    6  A    between atoms: C11_14  and  S1_29
REMARK    7  A    between atoms: C12_15  and  N3_28
REMARK    8  A    between atoms: S1_29  and  O6_32
REMARK                            x       y       z     vdW  Elec       q    Type
REMARK                         _______ _______ _______ _____ _____    ______ ____
ROOT
ATOM      1  C9  UNL     1       9.703 -12.020  28.073  0.00  0.00    +0.045 A 
ATOM      2  C10 UNL     1       8.882 -11.126  28.758  0.00  0.00    +0.055 A 
ATOM      3  C11 UNL     1       7.501 -11.306  28.809  0.00  0.00    +0.140 A 
ATOM      4  C12 UNL     1       6.909 -12.386  28.118  0.00  0.00    +0.064 A 
ATOM      5  C13 UNL     1       7.728 -13.282  27.373  0.00  0.00    +0.057 A 
ATOM      6  C14 UNL     1       9.139 -13.148  27.427  0.00  0.00    +0.056 A 
ATOM      7  C15 UNL     1       9.997 -14.219  26.840  0.00  0.00    +0.196 C 
ATOM      8  O2  UNL     1      11.237 -14.241  27.067  0.00  0.00    -0.287 OA
ATOM      9  C16 UNL     1       9.395 -15.307  26.041  0.00  0.00    +0.033 A 
ATOM     10  C17 UNL     1      10.205 -16.295  25.450  0.00  0.00    +0.012 A 
ATOM     11  C18 UNL     1       9.633 -17.322  24.696  0.00  0.00    +0.001 A 
ATOM     12  C19 UNL     1       8.251 -17.374  24.522  0.00  0.00    +0.001 A 
ATOM     13  C20 UNL     1       7.436 -16.400  25.102  0.00  0.00    +0.012 A 
ATOM     14  C21 UNL     1       8.000 -15.360  25.867  0.00  0.00    +0.033 A 
ATOM     15  C22 UNL     1       7.141 -14.320  26.474  0.00  0.00    +0.196 C 
ATOM     16  O3  UNL     1       5.921 -14.279  26.157  0.00  0.00    -0.287 OA
ENDROOT
BRANCH   4  17
ATOM     17  N3  UNL     1       5.494 -12.608  28.229  0.00  0.00    -0.356 N 
ATOM     18  H14 UNL     1       4.823 -11.820  28.354  0.00  0.00    +0.142 HD
ATOM     19  H15 UNL     1       5.110 -13.575  28.305  0.00  0.00    +0.142 HD
ENDBRANCH   4  17
BRANCH   3  20
ATOM     20  S1  UNL     1       6.537 -10.170  29.765  0.00  0.00    +0.111 S 
ATOM     21  O4  UNL     1       5.960 -10.884  30.956  0.00  0.00    -0.142 OA
ATOM     22  O5  UNL     1       7.407  -9.032  30.222  0.00  0.00    -0.142 OA
BRANCH  20  23
ATOM     23  O6  UNL     1       5.279  -9.548  28.837  0.00  0.00    -0.250 OA
ATOM     24  H16 UNL     1       4.789  -8.939  29.446  0.00  0.00    +0.245 HD
ENDBRANCH  20  23
ENDBRANCH   3  20
BRANCH   1  25
ATOM     25  N2  UNL     1      11.111 -11.742  28.029  0.00  0.00    -0.314 N 
ATOM     26  H8  UNL     1      11.757 -12.478  28.395  0.00  0.00    +0.152 HD
BRANCH  25  30
ATOM     27  C3  UNL     1      12.765  -7.918  27.137  0.00  0.00    +0.036 A 
ATOM     28  C4  UNL     1      13.269  -8.692  28.192  0.00  0.00    +0.025 A 
ATOM     29  C5  UNL     1      12.717  -9.942  28.480  0.00  0.00    +0.025 A 
ATOM     30  C6  UNL     1      11.654 -10.445  27.714  0.00  0.00    +0.031 A 
ATOM     31  C7  UNL     1      11.145  -9.666  26.659  0.00  0.00    +0.025 A 
ATOM     32  C8  UNL     1      11.698  -8.416  26.371  0.00  0.00    +0.025 A 
BRANCH  27  36
ATOM     33  C1  UNL     1      13.841  -4.206  27.520  0.00  0.00    +0.109 C 
ATOM     34  C2  UNL     1      13.168  -5.527  27.748  0.00  0.00    +0.216 C 
ATOM     35  O1  UNL     1      12.426  -5.656  28.761  0.00  0.00    -0.276 OA
ATOM     36  N1  UNL     1      13.343  -6.632  26.834  0.00  0.00    -0.275 N 
ATOM     37  C23 UNL     1      13.995  -6.428  25.536  0.00  0.00    +0.138 C 
ENDBRANCH  27  36
ENDBRANCH  25  30
ENDBRANCH   1  25
TORSDOF 6
ENDMDL
MODEL 6
REMARK minimizedAffinity -6.78418255
REMARK minimizedRMSD -1
REMARK  Name = /home/tchapet/Post-Doc/ARTICLES-DOSSIERS-DES-ARTICLES-EN-REDACTION/NOUVELS-AXES-DE-RECHERCHE-A-REGARDER-URGEMMENT/ARTICLES-EN-REDACTIONS/ARTICLE_MVOTO/Paper2_JCIM/docking_rerun/ligands/17574.pdb
REMARK  8 active torsions:
REMARK  status: ('A' for Active; 'I' for Inactive)
REMARK    1  A    between atoms: C1_1  and  C2_2
REMARK    2  A    between atoms: N1_4  and  C3_5
REMARK    3  A    between atoms: N1_4  and  C23_33
REMARK    4  A    between atoms: C6_8  and  N2_11
REMARK    5  A    between atoms: N2_11  and  C9_12
REMARK    6  A    between atoms: C11_14  and  S1_29
REMARK    7  A    between atoms: C12_15  and  N3_28
REMARK    8  A    between atoms: S1_29  and  O6_32
REMARK                            x       y       z     vdW  Elec       q    Type
REMARK                         _______ _______ _______ _____ _____    ______ ____
ROOT
ATOM      1  C9  UNL     1       5.527 -17.430  24.503  0.00  0.00    +0.045 A 
ATOM      2  C10 UNL     1       4.158 -17.471  24.247  0.00  0.00    +0.055 A 
ATOM      3  C11 UNL     1       3.317 -16.435  24.647  0.00  0.00    +0.140 A 
ATOM      4  C12 UNL     1       3.845 -15.340  25.366  0.00  0.00    +0.064 A 
ATOM      5  C13 UNL     1       5.234 -15.306  25.680  0.00  0.00    +0.057 A 
ATOM      6  C14 UNL     1       6.092 -16.312  25.166  0.00  0.00    +0.056 A 
ATOM      7  C15 UNL     1       7.569 -16.150  25.299  0.00  0.00    +0.196 C 
ATOM      8  O2  UNL     1       8.355 -16.905  24.663  0.00  0.00    -0.287 OA
ATOM      9  C16 UNL     1       8.133 -15.060  26.122  0.00  0.00    +0.033 A 
ATOM     10  C17 UNL     1       9.525 -14.929  26.284  0.00  0.00    +0.012 A 
ATOM     11  C18 UNL     1      10.053 -13.897  27.062  0.00  0.00    +0.001 A 
ATOM     12  C19 UNL     1       9.202 -12.987  27.687  0.00  0.00    +0.001 A 
ATOM     13  C20 UNL     1       7.818 -13.106  27.536  0.00  0.00    +0.012 A 
ATOM     14  C21 UNL     1       7.273 -14.141  26.751  0.00  0.00    +0.033 A 
ATOM     15  C22 UNL     1       5.808 -14.277  26.598  0.00  0.00    +0.196 C 
ATOM     16  O3  UNL     1       5.053 -13.563  27.312  0.00  0.00    -0.287 OA
ENDROOT
BRANCH   4  17
ATOM     17  N3  UNL     1       2.989 -14.242  25.717  0.00  0.00    -0.356 N 
ATOM     18  H14 UNL     1       1.976 -14.380  25.920  0.00  0.00    +0.142 HD
ATOM     19  H15 UNL     1       3.332 -13.259  25.664  0.00  0.00    +0.142 HD
ENDBRANCH   4  17
BRANCH   3  20
ATOM     20  S1  UNL     1       1.602 -16.524  24.213  0.00  0.00    +0.111 S 
ATOM     21  O4  UNL     1       1.348 -17.790  23.443  0.00  0.00    -0.142 OA
ATOM     22  O5  UNL     1       0.766 -16.507  25.462  0.00  0.00    -0.142 OA
BRANCH  20  23
ATOM     23  O6  UNL     1       1.174 -15.207  23.259  0.00  0.00    -0.250 OA
ATOM     24  H16 UNL     1       0.213 -15.341  23.054  0.00  0.00    +0.245 HD
ENDBRANCH  20  23
ENDBRANCH   3  20
BRANCH   1  25
ATOM     25  N2  UNL     1       6.321 -18.557  24.099  0.00  0.00    -0.314 N 
ATOM     26  H8  UNL     1       7.056 -18.888  24.763  0.00  0.00    +0.152 HD
BRANCH  25  30
ATOM     27  C3  UNL     1       6.301 -20.131  20.139  0.00  0.00    +0.036 A 
ATOM     28  C4  UNL     1       6.879 -18.883  20.415  0.00  0.00    +0.025 A 
ATOM     29  C5  UNL     1       6.875 -18.373  21.716  0.00  0.00    +0.025 A 
ATOM     30  C6  UNL     1       6.301 -19.104  22.766  0.00  0.00    +0.031 A 
ATOM     31  C7  UNL     1       5.717 -20.354  22.489  0.00  0.00    +0.025 A 
ATOM     32  C8  UNL     1       5.721 -20.864  21.188  0.00  0.00    +0.025 A 
BRANCH  27  36
ATOM     33  C1  UNL     1       5.308 -20.746  16.436  0.00  0.00    +0.109 C 
ATOM     34  C2  UNL     1       5.271 -20.300  17.867  0.00  0.00    +0.216 C 
ATOM     35  O1  UNL     1       4.293 -19.601  18.254  0.00  0.00    -0.276 OA
ATOM     36  N1  UNL     1       6.315 -20.661  18.798  0.00  0.00    -0.275 N 
ATOM     37  C23 UNL     1       7.321 -21.665  18.435  0.00  0.00    +0.138 C 
ENDBRANCH  27  36
ENDBRANCH  25  30
ENDBRANCH   1  25
TORSDOF 6
ENDMDL
MODEL 7
REMARK minimizedAffinity -6.75456238
REMARK minimizedRMSD -1
REMARK  Name = /home/tchapet/Post-Doc/ARTICLES-DOSSIERS-DES-ARTICLES-EN-REDACTION/NOUVELS-AXES-DE-RECHERCHE-A-REGARDER-URGEMMENT/ARTICLES-EN-REDACTIONS/ARTICLE_MVOTO/Paper2_JCIM/docking_rerun/ligands/17574.pdb
REMARK  8 active torsions:
REMARK  status: ('A' for Active; 'I' for Inactive)
REMARK    1  A    between atoms: C1_1  and  C2_2
REMARK    2  A    between atoms: N1_4  and  C3_5
REMARK    3  A    between atoms: N1_4  and  C23_33
REMARK    4  A    between atoms: C6_8  and  N2_11
REMARK    5  A    between atoms: N2_11  and  C9_12
REMARK    6  A    between atoms: C11_14  and  S1_29
REMARK    7  A    between atoms: C12_15  and  N3_28
REMARK    8  A    between atoms: S1_29  and  O6_32
REMARK                            x       y       z     vdW  Elec       q    Type
REMARK                         _______ _______ _______ _____ _____    ______ ____
ROOT
ATOM      1  C9  UNL     1      -9.387   2.434  19.426  0.00  0.00    +0.045 A 
ATOM      2  C10 UNL     1      -9.999   1.862  18.312  0.00  0.00    +0.055 A 
ATOM      3  C11 UNL     1     -10.477   0.554  18.343  0.00  0.00    +0.140 A 
ATOM      4  C12 UNL     1     -10.302  -0.230  19.505  0.00  0.00    +0.064 A 
ATOM      5  C13 UNL     1      -9.635   0.323  20.635  0.00  0.00    +0.057 A 
ATOM      6  C14 UNL     1      -9.258   1.690  20.625  0.00  0.00    +0.056 A 
ATOM      7  C15 UNL     1      -8.774   2.324  21.887  0.00  0.00    +0.196 C 
ATOM      8  O2  UNL     1      -8.647   3.576  21.965  0.00  0.00    -0.287 OA
ATOM      9  C16 UNL     1      -8.504   1.499  23.083  0.00  0.00    +0.033 A 
ATOM     10  C17 UNL     1      -8.007   2.087  24.262  0.00  0.00    +0.012 A 
ATOM     11  C18 UNL     1      -7.753   1.306  25.390  0.00  0.00    +0.001 A 
ATOM     12  C19 UNL     1      -7.990  -0.068  25.356  0.00  0.00    +0.001 A 
ATOM     13  C20 UNL     1      -8.481  -0.665  24.193  0.00  0.00    +0.012 A 
ATOM     14  C21 UNL     1      -8.743   0.114  23.049  0.00  0.00    +0.033 A 
ATOM     15  C22 UNL     1      -9.254  -0.516  21.811  0.00  0.00    +0.196 C 
ATOM     16  O3  UNL     1      -9.288  -1.774  21.739  0.00  0.00    -0.287 OA
ENDROOT
BRANCH   4  17
ATOM     17  N3  UNL     1     -10.856  -1.554  19.557  0.00  0.00    -0.356 N 
ATOM     18  H14 UNL     1     -10.939  -2.148  18.704  0.00  0.00    +0.142 HD
ATOM     19  H15 UNL     1     -11.298  -1.914  20.430  0.00  0.00    +0.142 HD
ENDBRANCH   4  17
BRANCH   3  20
ATOM     20  S1  UNL     1     -11.312  -0.073  16.913  0.00  0.00    +0.111 S 
ATOM     21  O4  UNL     1     -12.762  -0.298  17.240  0.00  0.00    -0.142 OA
ATOM     22  O5  UNL     1     -11.189   0.913  15.786  0.00  0.00    -0.142 OA
BRANCH  20  23
ATOM     23  O6  UNL     1     -10.626  -1.532  16.430  0.00  0.00    -0.250 OA
ATOM     24  H16 UNL     1     -11.155  -1.814  15.641  0.00  0.00    +0.245 HD
ENDBRANCH  20  23
ENDBRANCH   3  20
BRANCH   1  25
ATOM     25  N2  UNL     1      -8.881   3.772  19.302  0.00  0.00    -0.314 N 
ATOM     26  H8  UNL     1      -8.519   4.230  20.169  0.00  0.00    +0.152 HD
BRANCH  25  30
ATOM     27  C3  UNL     1      -9.312   6.115  15.769  0.00  0.00    +0.036 A 
ATOM     28  C4  UNL     1      -8.197   5.283  15.949  0.00  0.00    +0.025 A 
ATOM     29  C5  UNL     1      -8.063   4.523  17.114  0.00  0.00    +0.025 A 
ATOM     30  C6  UNL     1      -9.043   4.575  18.116  0.00  0.00    +0.031 A 
ATOM     31  C7  UNL     1     -10.158   5.414  17.938  0.00  0.00    +0.025 A 
ATOM     32  C8  UNL     1     -10.293   6.174  16.772  0.00  0.00    +0.025 A 
BRANCH  27  36
ATOM     33  C1  UNL     1     -10.599   7.278  12.294  0.00  0.00    +0.109 C 
ATOM     34  C2  UNL     1     -10.345   6.445  13.515  0.00  0.00    +0.216 C 
ATOM     35  O1  UNL     1     -10.922   5.327  13.611  0.00  0.00    -0.276 OA
ATOM     36  N1  UNL     1      -9.455   6.892  14.562  0.00  0.00    -0.275 N 
ATOM     37  C23 UNL     1      -8.594   8.062  14.358  0.00  0.00    +0.138 C 
ENDBRANCH  27  36
ENDBRANCH  25  30
ENDBRANCH   1  25
TORSDOF 6
ENDMDL
MODEL 8
REMARK minimizedAffinity -6.7296524
REMARK minimizedRMSD -1
REMARK  Name = /home/tchapet/Post-Doc/ARTICLES-DOSSIERS-DES-ARTICLES-EN-REDACTION/NOUVELS-AXES-DE-RECHERCHE-A-REGARDER-URGEMMENT/ARTICLES-EN-REDACTIONS/ARTICLE_MVOTO/Paper2_JCIM/docking_rerun/ligands/17574.pdb
REMARK  8 active torsions:
REMARK  status: ('A' for Active; 'I' for Inactive)
REMARK    1  A    between atoms: C1_1  and  C2_2
REMARK    2  A    between atoms: N1_4  and  C3_5
REMARK    3  A    between atoms: N1_4  and  C23_33
REMARK    4  A    between atoms: C6_8  and  N2_11
REMARK    5  A    between atoms: N2_11  and  C9_12
REMARK    6  A    between atoms: C11_14  and  S1_29
REMARK    7  A    between atoms: C12_15  and  N3_28
REMARK    8  A    between atoms: S1_29  and  O6_32
REMARK                            x       y       z     vdW  Elec       q    Type
REMARK                         _______ _______ _______ _____ _____    ______ ____
ROOT
ATOM      1  C9  UNL     1       6.566 -11.715  29.030  0.00  0.00    +0.045 A 
ATOM      2  C10 UNL     1       7.528 -10.814  28.579  0.00  0.00    +0.055 A 
ATOM      3  C11 UNL     1       8.380 -10.161  29.468  0.00  0.00    +0.140 A 
ATOM      4  C12 UNL     1       8.242 -10.376  30.858  0.00  0.00    +0.064 A 
ATOM      5  C13 UNL     1       7.231 -11.257  31.338  0.00  0.00    +0.057 A 
ATOM      6  C14 UNL     1       6.451 -11.998  30.413  0.00  0.00    +0.056 A 
ATOM      7  C15 UNL     1       5.560 -13.084  30.916  0.00  0.00    +0.196 C 
ATOM      8  O2  UNL     1       5.031 -13.900  30.112  0.00  0.00    -0.287 OA
ATOM      9  C16 UNL     1       5.339 -13.262  32.366  0.00  0.00    +0.033 A 
ATOM     10  C17 UNL     1       4.466 -14.259  32.842  0.00  0.00    +0.012 A 
ATOM     11  C18 UNL     1       4.261 -14.425  34.213  0.00  0.00    +0.001 A 
ATOM     12  C19 UNL     1       4.921 -13.600  35.122  0.00  0.00    +0.001 A 
ATOM     13  C20 UNL     1       5.789 -12.606  34.664  0.00  0.00    +0.012 A 
ATOM     14  C21 UNL     1       6.006 -12.430  33.284  0.00  0.00    +0.033 A 
ATOM     15  C22 UNL     1       6.916 -11.372  32.794  0.00  0.00    +0.196 C 
ATOM     16  O3  UNL     1       7.359 -10.523  33.615  0.00  0.00    -0.287 OA
ENDROOT
BRANCH   4  17
ATOM     17  N3  UNL     1       9.164  -9.755  31.766  0.00  0.00    -0.356 N 
ATOM     18  H14 UNL     1       9.593  -8.827  31.563  0.00  0.00    +0.142 HD
ATOM     19  H15 UNL     1       9.521 -10.270  32.600  0.00  0.00    +0.142 HD
ENDBRANCH   4  17
BRANCH   3  20
ATOM     20  S1  UNL     1       9.628  -9.091  28.810  0.00  0.00    +0.111 S 
ATOM     21  O4  UNL     1      10.985  -9.611  29.195  0.00  0.00    -0.142 OA
ATOM     22  O5  UNL     1       9.505  -9.037  27.313  0.00  0.00    -0.142 OA
BRANCH  20  23
ATOM     23  O6  UNL     1       9.443  -7.535  29.423  0.00  0.00    -0.250 OA
ATOM     24  H16 UNL     1      10.181  -7.012  29.017  0.00  0.00    +0.245 HD
ENDBRANCH  20  23
ENDBRANCH   3  20
BRANCH   1  25
ATOM     25  N2  UNL     1       5.697 -12.314  28.056  0.00  0.00    -0.314 N 
ATOM     26  H8  UNL     1       4.696 -12.014  28.058  0.00  0.00    +0.152 HD
BRANCH  25  30
ATOM     27  C3  UNL     1       6.876 -15.636  25.662  0.00  0.00    +0.036 A 
ATOM     28  C4  UNL     1       7.830 -14.860  26.336  0.00  0.00    +0.025 A 
ATOM     29  C5  UNL     1       7.434 -13.769  27.114  0.00  0.00    +0.025 A 
ATOM     30  C6  UNL     1       6.076 -13.439  27.239  0.00  0.00    +0.031 A 
ATOM     31  C7  UNL     1       5.119 -14.215  26.558  0.00  0.00    +0.025 A 
ATOM     32  C8  UNL     1       5.516 -15.306  25.781  0.00  0.00    +0.025 A 
BRANCH  27  36
ATOM     33  C1  UNL     1       7.710 -19.293  24.655  0.00  0.00    +0.109 C 
ATOM     34  C2  UNL     1       7.390 -18.076  25.472  0.00  0.00    +0.216 C 
ATOM     35  O1  UNL     1       7.220 -18.214  26.715  0.00  0.00    -0.276 OA
ATOM     36  N1  UNL     1       7.286 -16.768  24.868  0.00  0.00    -0.275 N 
ATOM     37  C23 UNL     1       7.718 -16.551  23.483  0.00  0.00    +0.138 C 
ENDBRANCH  27  36
ENDBRANCH  25  30
ENDBRANCH   1  25
TORSDOF 6
ENDMDL
MODEL 9
REMARK minimizedAffinity -6.72314787
REMARK minimizedRMSD -1
REMARK  Name = /home/tchapet/Post-Doc/ARTICLES-DOSSIERS-DES-ARTICLES-EN-REDACTION/NOUVELS-AXES-DE-RECHERCHE-A-REGARDER-URGEMMENT/ARTICLES-EN-REDACTIONS/ARTICLE_MVOTO/Paper2_JCIM/docking_rerun/ligands/17574.pdb
REMARK  8 active torsions:
REMARK  status: ('A' for Active; 'I' for Inactive)
REMARK    1  A    between atoms: C1_1  and  C2_2
REMARK    2  A    between atoms: N1_4  and  C3_5
REMARK    3  A    between atoms: N1_4  and  C23_33
REMARK    4  A    between atoms: C6_8  and  N2_11
REMARK    5  A    between atoms: N2_11  and  C9_12
REMARK    6  A    between atoms: C11_14  and  S1_29
REMARK    7  A    between atoms: C12_15  and  N3_28
REMARK    8  A    between atoms: S1_29  and  O6_32
REMARK                            x       y       z     vdW  Elec       q    Type
REMARK                         _______ _______ _______ _____ _____    ______ ____
ROOT
ATOM      1  C9  UNL     1      -9.022   6.321  20.477  0.00  0.00    +0.045 A 
ATOM      2  C10 UNL     1      -8.933   5.571  19.305  0.00  0.00    +0.055 A 
ATOM      3  C11 UNL     1      -8.172   6.011  18.223  0.00  0.00    +0.140 A 
ATOM      4  C12 UNL     1      -7.514   7.259  18.288  0.00  0.00    +0.064 A 
ATOM      5  C13 UNL     1      -7.635   8.060  19.459  0.00  0.00    +0.057 A 
ATOM      6  C14 UNL     1      -8.318   7.545  20.591  0.00  0.00    +0.056 A 
ATOM      7  C15 UNL     1      -8.245   8.283  21.886  0.00  0.00    +0.196 C 
ATOM      8  O2  UNL     1      -8.648   7.744  22.952  0.00  0.00    -0.287 OA
ATOM      9  C16 UNL     1      -7.637   9.629  21.948  0.00  0.00    +0.033 A 
ATOM     10  C17 UNL     1      -7.604  10.346  23.159  0.00  0.00    +0.012 A 
ATOM     11  C18 UNL     1      -7.028  11.616  23.214  0.00  0.00    +0.001 A 
ATOM     12  C19 UNL     1      -6.481  12.185  22.065  0.00  0.00    +0.001 A 
ATOM     13  C20 UNL     1      -6.508  11.486  20.857  0.00  0.00    +0.012 A 
ATOM     14  C21 UNL     1      -7.084  10.202  20.789  0.00  0.00    +0.033 A 
ATOM     15  C22 UNL     1      -7.124   9.462  19.508  0.00  0.00    +0.196 C 
ATOM     16  O3  UNL     1      -6.793  10.062  18.450  0.00  0.00    -0.287 OA
ENDROOT
BRANCH   4  17
ATOM     17  N3  UNL     1      -6.677   7.677  17.199  0.00  0.00    -0.356 N 
ATOM     18  H14 UNL     1      -6.881   7.403  16.214  0.00  0.00    +0.142 HD
ATOM     19  H15 UNL     1      -5.775   8.169  17.377  0.00  0.00    +0.142 HD
ENDBRANCH   4  17
BRANCH   3  20
ATOM     20  S1  UNL     1      -8.045   4.963  16.801  0.00  0.00    +0.111 S 
ATOM     21  O4  UNL     1      -8.974   3.792  16.959  0.00  0.00    -0.142 OA
ATOM     22  O5  UNL     1      -8.407   5.742  15.568  0.00  0.00    -0.142 OA
BRANCH  20  23
ATOM     23  O6  UNL     1      -6.470   4.395  16.635  0.00  0.00    -0.250 OA
ATOM     24  H16 UNL     1      -6.490   3.814  15.832  0.00  0.00    +0.245 HD
ENDBRANCH  20  23
ENDBRANCH   3  20
BRANCH   1  25
ATOM     25  N2  UNL     1      -9.861   5.823  21.530  0.00  0.00    -0.314 N 
ATOM     26  H8  UNL     1     -10.496   6.506  22.001  0.00  0.00    +0.152 HD
BRANCH  25  30
ATOM     27  C3  UNL     1      -9.390   1.959  23.264  0.00  0.00    +0.036 A 
ATOM     28  C4  UNL     1      -8.426   2.958  23.461  0.00  0.00    +0.025 A 
ATOM     29  C5  UNL     1      -8.587   4.220  22.884  0.00  0.00    +0.025 A 
ATOM     30  C6  UNL     1      -9.717   4.509  22.105  0.00  0.00    +0.031 A 
ATOM     31  C7  UNL     1     -10.682   3.504  21.903  0.00  0.00    +0.025 A 
ATOM     32  C8  UNL     1     -10.521   2.243  22.481  0.00  0.00    +0.025 A 
BRANCH  27  36
ATOM     33  C1  UNL     1      -8.133  -1.665  23.874  0.00  0.00    +0.109 C 
ATOM     34  C2  UNL     1      -8.409  -0.341  23.224  0.00  0.00    +0.216 C 
ATOM     35  O1  UNL     1      -7.917  -0.116  22.084  0.00  0.00    -0.276 OA
ATOM     36  N1  UNL     1      -9.228   0.660  23.869  0.00  0.00    -0.275 N 
ATOM     37  C23 UNL     1     -10.003   0.327  25.069  0.00  0.00    +0.138 C 
ENDBRANCH  27  36
ENDBRANCH  25  30
ENDBRANCH   1  25
TORSDOF 6
ENDMDL
