MODEL 1
REMARK minimizedAffinity -5.87764168
REMARK minimizedRMSD -1
REMARK  Name = /home/tchapet/Post-Doc/ARTICLES-DOSSIERS-DES-ARTICLES-EN-REDACTION/NOUVELS-AXES-DE-RECHERCHE-A-REGARDER-URGEMMENT/ARTICLES-EN-REDACTIONS/ARTICLE_MVOTO/Paper2_Sensors_ActuatorsB/docking_rerun/ligands/17851.pdb
REMARK  7 active torsions:
REMARK  status: ('A' for Active; 'I' for Inactive)
REMARK    1  A    between atoms: C1_1  and  C2_2
REMARK    2  A    between atoms: C2_2  and  N1_3
REMARK    3  A    between atoms: N1_3  and  C3_4
REMARK    4  A    between atoms: N3_7  and  N4_8
REMARK    5  A    between atoms: N8_13  and  C6_14
REMARK    6  A    between atoms: C6_14  and  C7_15
REMARK    7  A    between atoms: C6_14  and  C8_16
REMARK                            x       y       z     vdW  Elec       q    Type
REMARK                         _______ _______ _______ _____ _____    ______ ____
ROOT
ATOM      1  C3  UNL     1      13.978  -0.285   8.532  0.00  0.00    +0.241 A 
ATOM      2  N2  UNL     1      14.011  -1.643   8.563  0.00  0.00    -0.178 NA
ATOM      3  C4  UNL     1      13.773  -2.358   7.434  0.00  0.00    +0.252 A 
ATOM      4  N3  UNL     1      13.806  -3.786   7.462  0.00  0.00    -0.126 N 
ATOM      5  N6  UNL     1      13.504  -1.711   6.273  0.00  0.00    -0.179 NA
ATOM      6  C5  UNL     1      13.470  -0.353   6.232  0.00  0.00    +0.221 A 
ATOM      7  N7  UNL     1      13.708   0.354   7.366  0.00  0.00    -0.180 NA
ATOM      8  N8  UNL     1      13.186   0.346   5.009  0.00  0.00    -0.311 N 
ATOM      9  H6  UNL     1      13.623  -4.327   6.587  0.00  0.00    +0.193 HD
ATOM     10  H7  UNL     1      13.173   1.390   5.045  0.00  0.00    +0.149 HD
ENDROOT
BRANCH   8  11
ATOM     11  C6  UNL     1      12.910  -0.287   3.713  0.00  0.00    +0.067 C 
ATOM     12  C7  UNL     1      11.869   0.504   2.914  0.00  0.00    +0.027 C 
ATOM     13  C8  UNL     1      14.198  -0.506   2.912  0.00  0.00    +0.027 C 
ENDBRANCH   8  11
BRANCH   4  14
ATOM     14  N4  UNL     1      14.073  -4.453   8.612  0.00  0.00    -0.126 NA
ATOM     15  N5  UNL     1      14.294  -5.004   9.563  0.00  0.00    -0.017 NA
ENDBRANCH   4  14
BRANCH   1  16
ATOM     16  N1  UNL     1      14.226   0.478   9.714  0.00  0.00    -0.216 NA
BRANCH  16  18
ATOM     17  C1  UNL     1      12.615  -0.291  11.372  0.00  0.00    +0.026 C 
ATOM     18  C2  UNL     1      14.087  -0.075  11.055  0.00  0.00    +0.128 C 
ENDBRANCH  16  18
ENDBRANCH   1  16
TORSDOF 4
ENDMDL
MODEL 2
REMARK minimizedAffinity -5.81576729
REMARK minimizedRMSD -1
REMARK  Name = /home/tchapet/Post-Doc/ARTICLES-DOSSIERS-DES-ARTICLES-EN-REDACTION/NOUVELS-AXES-DE-RECHERCHE-A-REGARDER-URGEMMENT/ARTICLES-EN-REDACTIONS/ARTICLE_MVOTO/Paper2_Sensors_ActuatorsB/docking_rerun/ligands/17851.pdb
REMARK  7 active torsions:
REMARK  status: ('A' for Active; 'I' for Inactive)
REMARK    1  A    between atoms: C1_1  and  C2_2
REMARK    2  A    between atoms: C2_2  and  N1_3
REMARK    3  A    between atoms: N1_3  and  C3_4
REMARK    4  A    between atoms: N3_7  and  N4_8
REMARK    5  A    between atoms: N8_13  and  C6_14
REMARK    6  A    between atoms: C6_14  and  C7_15
REMARK    7  A    between atoms: C6_14  and  C8_16
REMARK                            x       y       z     vdW  Elec       q    Type
REMARK                         _______ _______ _______ _____ _____    ______ ____
ROOT
ATOM      1  C3  UNL     1      13.848  -2.792   7.490  0.00  0.00    +0.241 A 
ATOM      2  N2  UNL     1      13.872  -1.732   8.339  0.00  0.00    -0.178 NA
ATOM      3  C4  UNL     1      13.628  -0.479   7.875  0.00  0.00    +0.252 A 
ATOM      4  N3  UNL     1      13.652   0.639   8.764  0.00  0.00    -0.126 N 
ATOM      5  N6  UNL     1      13.358  -0.291   6.559  0.00  0.00    -0.179 NA
ATOM      6  C5  UNL     1      13.332  -1.346   5.703  0.00  0.00    +0.221 A 
ATOM      7  N7  UNL     1      13.578  -2.595   6.175  0.00  0.00    -0.180 NA
ATOM      8  N8  UNL     1      13.048  -1.162   4.306  0.00  0.00    -0.311 N 
ATOM      9  H6  UNL     1      13.462   1.598   8.397  0.00  0.00    +0.193 HD
ATOM     10  H7  UNL     1      13.044  -2.013   3.701  0.00  0.00    +0.149 HD
ENDROOT
BRANCH   8  11
ATOM     11  C6  UNL     1      12.765   0.126   3.660  0.00  0.00    +0.067 C 
ATOM     12  C7  UNL     1      14.039   0.756   3.087  0.00  0.00    +0.027 C 
ATOM     13  C8  UNL     1      11.668  -0.010   2.598  0.00  0.00    +0.027 C 
ENDBRANCH   8  11
BRANCH   4  14
ATOM     14  N4  UNL     1      13.918   0.473  10.083  0.00  0.00    -0.126 NA
ATOM     15  N5  UNL     1      14.139   0.336  11.174  0.00  0.00    -0.017 NA
ENDBRANCH   4  14
BRANCH   1  16
ATOM     16  N1  UNL     1      14.104  -4.114   7.967  0.00  0.00    -0.216 NA
BRANCH  16  18
ATOM     17  C1  UNL     1      13.080  -4.432  10.155  0.00  0.00    +0.026 C 
ATOM     18  C2  UNL     1      14.381  -4.410   9.367  0.00  0.00    +0.128 C 
ENDBRANCH  16  18
ENDBRANCH   1  16
TORSDOF 4
ENDMDL
MODEL 3
REMARK minimizedAffinity -5.65765238
REMARK minimizedRMSD -1
REMARK  Name = /home/tchapet/Post-Doc/ARTICLES-DOSSIERS-DES-ARTICLES-EN-REDACTION/NOUVELS-AXES-DE-RECHERCHE-A-REGARDER-URGEMMENT/ARTICLES-EN-REDACTIONS/ARTICLE_MVOTO/Paper2_Sensors_ActuatorsB/docking_rerun/ligands/17851.pdb
REMARK  7 active torsions:
REMARK  status: ('A' for Active; 'I' for Inactive)
REMARK    1  A    between atoms: C1_1  and  C2_2
REMARK    2  A    between atoms: C2_2  and  N1_3
REMARK    3  A    between atoms: N1_3  and  C3_4
REMARK    4  A    between atoms: N3_7  and  N4_8
REMARK    5  A    between atoms: N8_13  and  C6_14
REMARK    6  A    between atoms: C6_14  and  C7_15
REMARK    7  A    between atoms: C6_14  and  C8_16
REMARK                            x       y       z     vdW  Elec       q    Type
REMARK                         _______ _______ _______ _____ _____    ______ ____
ROOT
ATOM      1  C3  UNL     1      13.356  -0.986   5.299  0.00  0.00    +0.241 A 
ATOM      2  N2  UNL     1      13.654  -2.310   5.253  0.00  0.00    -0.178 NA
ATOM      3  C4  UNL     1      13.873  -3.002   6.401  0.00  0.00    +0.252 A 
ATOM      4  N3  UNL     1      14.187  -4.394   6.358  0.00  0.00    -0.126 N 
ATOM      5  N6  UNL     1      13.791  -2.364   7.595  0.00  0.00    -0.179 NA
ATOM      6  C5  UNL     1      13.493  -1.039   7.651  0.00  0.00    +0.221 A 
ATOM      7  N7  UNL     1      13.276  -0.356   6.498  0.00  0.00    -0.180 NA
ATOM      8  N8  UNL     1      13.403  -0.351   8.908  0.00  0.00    -0.311 N 
ATOM      9  H6  UNL     1      14.353  -4.918   7.246  0.00  0.00    +0.193 HD
ATOM     10  H7  UNL     1      13.171   0.667   8.883  0.00  0.00    +0.149 HD
ENDROOT
BRANCH   8  11
ATOM     11  C6  UNL     1      13.612  -0.961  10.228  0.00  0.00    +0.067 C 
ATOM     12  C7  UNL     1      14.059   0.079  11.261  0.00  0.00    +0.027 C 
ATOM     13  C8  UNL     1      12.369  -1.729  10.692  0.00  0.00    +0.027 C 
ENDBRANCH   8  11
BRANCH   4  14
ATOM     14  N4  UNL     1      14.274  -5.052   5.174  0.00  0.00    -0.126 NA
ATOM     15  N5  UNL     1      14.346  -5.595   4.197  0.00  0.00    -0.017 NA
ENDBRANCH   4  14
BRANCH   1  16
ATOM     16  N1  UNL     1      13.124  -0.248   4.098  0.00  0.00    -0.216 NA
BRANCH  16  18
ATOM     17  C1  UNL     1      13.507   1.522   2.469  0.00  0.00    +0.026 C 
ATOM     18  C2  UNL     1      14.152   0.564   3.458  0.00  0.00    +0.128 C 
ENDBRANCH  16  18
ENDBRANCH   1  16
TORSDOF 4
ENDMDL
MODEL 4
REMARK minimizedAffinity -5.04590654
REMARK minimizedRMSD -1
REMARK  Name = /home/tchapet/Post-Doc/ARTICLES-DOSSIERS-DES-ARTICLES-EN-REDACTION/NOUVELS-AXES-DE-RECHERCHE-A-REGARDER-URGEMMENT/ARTICLES-EN-REDACTIONS/ARTICLE_MVOTO/Paper2_Sensors_ActuatorsB/docking_rerun/ligands/17851.pdb
REMARK  7 active torsions:
REMARK  status: ('A' for Active; 'I' for Inactive)
REMARK    1  A    between atoms: C1_1  and  C2_2
REMARK    2  A    between atoms: C2_2  and  N1_3
REMARK    3  A    between atoms: N1_3  and  C3_4
REMARK    4  A    between atoms: N3_7  and  N4_8
REMARK    5  A    between atoms: N8_13  and  C6_14
REMARK    6  A    between atoms: C6_14  and  C7_15
REMARK    7  A    between atoms: C6_14  and  C8_16
REMARK                            x       y       z     vdW  Elec       q    Type
REMARK                         _______ _______ _______ _____ _____    ______ ____
ROOT
ATOM      1  C3  UNL     1      14.086  -3.827   8.077  0.00  0.00    +0.241 A 
ATOM      2  N2  UNL     1      13.840  -2.533   7.744  0.00  0.00    -0.178 NA
ATOM      3  C4  UNL     1      13.813  -2.157   6.439  0.00  0.00    +0.252 A 
ATOM      4  N3  UNL     1      13.555  -0.798   6.083  0.00  0.00    -0.126 N 
ATOM      5  N6  UNL     1      14.032  -3.080   5.469  0.00  0.00    -0.179 NA
ATOM      6  C5  UNL     1      14.279  -4.376   5.794  0.00  0.00    +0.221 A 
ATOM      7  N7  UNL     1      14.305  -4.743   7.101  0.00  0.00    -0.180 NA
ATOM      8  N8  UNL     1      14.512  -5.364   4.777  0.00  0.00    -0.311 N 
ATOM      9  H6  UNL     1      13.535  -0.519   5.077  0.00  0.00    +0.193 HD
ATOM     10  H7  UNL     1      14.697  -6.343   5.092  0.00  0.00    +0.149 HD
ENDROOT
BRANCH   8  11
ATOM     11  C6  UNL     1      14.514  -5.111   3.331  0.00  0.00    +0.067 C 
ATOM     12  C7  UNL     1      15.555  -4.052   2.950  0.00  0.00    +0.027 C 
ATOM     13  C8  UNL     1      14.703  -6.408   2.536  0.00  0.00    +0.027 C 
ENDBRANCH   8  11
BRANCH   4  14
ATOM     14  N4  UNL     1      13.333   0.141   7.037  0.00  0.00    -0.126 NA
ATOM     15  N5  UNL     1      13.149   0.916   7.825  0.00  0.00    -0.017 NA
ENDBRANCH   4  14
BRANCH   1  16
ATOM     16  N1  UNL     1      14.118  -4.234   9.446  0.00  0.00    -0.216 NA
BRANCH  16  18
ATOM     17  C1  UNL     1      12.714  -2.866  10.893  0.00  0.00    +0.026 C 
ATOM     18  C2  UNL     1      12.932  -4.247  10.294  0.00  0.00    +0.128 C 
ENDBRANCH  16  18
ENDBRANCH   1  16
TORSDOF 4
ENDMDL
MODEL 5
REMARK minimizedAffinity -4.49972725
REMARK minimizedRMSD -1
REMARK  Name = /home/tchapet/Post-Doc/ARTICLES-DOSSIERS-DES-ARTICLES-EN-REDACTION/NOUVELS-AXES-DE-RECHERCHE-A-REGARDER-URGEMMENT/ARTICLES-EN-REDACTIONS/ARTICLE_MVOTO/Paper2_Sensors_ActuatorsB/docking_rerun/ligands/17851.pdb
REMARK  7 active torsions:
REMARK  status: ('A' for Active; 'I' for Inactive)
REMARK    1  A    between atoms: C1_1  and  C2_2
REMARK    2  A    between atoms: C2_2  and  N1_3
REMARK    3  A    between atoms: N1_3  and  C3_4
REMARK    4  A    between atoms: N3_7  and  N4_8
REMARK    5  A    between atoms: N8_13  and  C6_14
REMARK    6  A    between atoms: C6_14  and  C7_15
REMARK    7  A    between atoms: C6_14  and  C8_16
REMARK                            x       y       z     vdW  Elec       q    Type
REMARK                         _______ _______ _______ _____ _____    ______ ____
ROOT
ATOM      1  C3  UNL     1      -2.064 -14.317  13.510  0.00  0.00    +0.241 A 
ATOM      2  N2  UNL     1      -1.000 -15.137  13.714  0.00  0.00    -0.178 NA
ATOM      3  C4  UNL     1      -0.164 -14.923  14.762  0.00  0.00    +0.252 A 
ATOM      4  N3  UNL     1       0.956 -15.782  14.981  0.00  0.00    -0.126 N 
ATOM      5  N6  UNL     1      -0.397 -13.888  15.607  0.00  0.00    -0.179 NA
ATOM      6  C5  UNL     1      -1.459 -13.063  15.411  0.00  0.00    +0.221 A 
ATOM      7  N7  UNL     1      -2.289 -13.284  14.359  0.00  0.00    -0.180 NA
ATOM      8  N8  UNL     1      -1.718 -11.962  16.297  0.00  0.00    -0.311 N 
ATOM      9  H6  UNL     1       1.593 -15.610  15.791  0.00  0.00    +0.193 HD
ATOM     10  H7  UNL     1      -2.551 -11.366  16.091  0.00  0.00    +0.149 HD
ENDROOT
BRANCH   8  11
ATOM     11  C6  UNL     1      -0.908 -11.607  17.469  0.00  0.00    +0.067 C 
ATOM     12  C7  UNL     1      -0.882 -10.091  17.692  0.00  0.00    +0.027 C 
ATOM     13  C8  UNL     1      -1.373 -12.360  18.720  0.00  0.00    +0.027 C 
ENDBRANCH   8  11
BRANCH   4  14
ATOM     14  N4  UNL     1       1.208 -16.823  14.149  0.00  0.00    -0.126 NA
ATOM     15  N5  UNL     1       1.415 -17.684  13.461  0.00  0.00    -0.017 NA
ENDBRANCH   4  14
BRANCH   1  16
ATOM     16  N1  UNL     1      -2.949 -14.532  12.409  0.00  0.00    -0.216 NA
BRANCH  16  18
ATOM     17  C1  UNL     1      -3.218 -14.909  10.018  0.00  0.00    +0.026 C 
ATOM     18  C2  UNL     1      -2.647 -15.450  11.319  0.00  0.00    +0.128 C 
ENDBRANCH  16  18
ENDBRANCH   1  16
TORSDOF 4
ENDMDL
MODEL 6
REMARK minimizedAffinity -4.4951725
REMARK minimizedRMSD -1
REMARK  Name = /home/tchapet/Post-Doc/ARTICLES-DOSSIERS-DES-ARTICLES-EN-REDACTION/NOUVELS-AXES-DE-RECHERCHE-A-REGARDER-URGEMMENT/ARTICLES-EN-REDACTIONS/ARTICLE_MVOTO/Paper2_Sensors_ActuatorsB/docking_rerun/ligands/17851.pdb
REMARK  7 active torsions:
REMARK  status: ('A' for Active; 'I' for Inactive)
REMARK    1  A    between atoms: C1_1  and  C2_2
REMARK    2  A    between atoms: C2_2  and  N1_3
REMARK    3  A    between atoms: N1_3  and  C3_4
REMARK    4  A    between atoms: N3_7  and  N4_8
REMARK    5  A    between atoms: N8_13  and  C6_14
REMARK    6  A    between atoms: C6_14  and  C7_15
REMARK    7  A    between atoms: C6_14  and  C8_16
REMARK                            x       y       z     vdW  Elec       q    Type
REMARK                         _______ _______ _______ _____ _____    ______ ____
ROOT
ATOM      1  C3  UNL     1       0.293 -14.996  20.194  0.00  0.00    +0.241 A 
ATOM      2  N2  UNL     1      -0.395 -14.650  21.313  0.00  0.00    -0.178 NA
ATOM      3  C4  UNL     1      -1.288 -13.628  21.278  0.00  0.00    +0.252 A 
ATOM      4  N3  UNL     1      -2.013 -13.260  22.452  0.00  0.00    -0.126 N 
ATOM      5  N6  UNL     1      -1.493 -12.954  20.118  0.00  0.00    -0.179 NA
ATOM      6  C5  UNL     1      -0.810 -13.294  18.993  0.00  0.00    +0.221 A 
ATOM      7  N7  UNL     1       0.082 -14.316  19.038  0.00  0.00    -0.180 NA
ATOM      8  N8  UNL     1      -1.016 -12.589  17.759  0.00  0.00    -0.311 N 
ATOM      9  H6  UNL     1      -2.699 -12.473  22.415  0.00  0.00    +0.193 HD
ATOM     10  H7  UNL     1      -0.460 -12.898  16.930  0.00  0.00    +0.149 HD
ENDROOT
BRANCH   8  11
ATOM     11  C6  UNL     1      -1.945 -11.468  17.565  0.00  0.00    +0.067 C 
ATOM     12  C7  UNL     1      -1.215 -10.121  17.623  0.00  0.00    +0.027 C 
ATOM     13  C8  UNL     1      -2.751 -11.626  16.271  0.00  0.00    +0.027 C 
ENDBRANCH   8  11
BRANCH   4  14
ATOM     14  N4  UNL     1      -1.825 -13.920  23.622  0.00  0.00    -0.126 NA
ATOM     15  N5  UNL     1      -1.669 -14.466  24.589  0.00  0.00    -0.017 NA
ENDBRANCH   4  14
BRANCH   1  16
ATOM     16  N1  UNL     1       1.235 -16.069  20.219  0.00  0.00    -0.216 NA
BRANCH  16  18
ATOM     17  C1  UNL     1       2.752 -17.748  19.318  0.00  0.00    +0.026 C 
ATOM     18  C2  UNL     1       1.515 -16.903  19.058  0.00  0.00    +0.128 C 
ENDBRANCH  16  18
ENDBRANCH   1  16
TORSDOF 4
ENDMDL
MODEL 7
REMARK minimizedAffinity -4.3844924
REMARK minimizedRMSD -1
REMARK  Name = /home/tchapet/Post-Doc/ARTICLES-DOSSIERS-DES-ARTICLES-EN-REDACTION/NOUVELS-AXES-DE-RECHERCHE-A-REGARDER-URGEMMENT/ARTICLES-EN-REDACTIONS/ARTICLE_MVOTO/Paper2_Sensors_ActuatorsB/docking_rerun/ligands/17851.pdb
REMARK  7 active torsions:
REMARK  status: ('A' for Active; 'I' for Inactive)
REMARK    1  A    between atoms: C1_1  and  C2_2
REMARK    2  A    between atoms: C2_2  and  N1_3
REMARK    3  A    between atoms: N1_3  and  C3_4
REMARK    4  A    between atoms: N3_7  and  N4_8
REMARK    5  A    between atoms: N8_13  and  C6_14
REMARK    6  A    between atoms: C6_14  and  C7_15
REMARK    7  A    between atoms: C6_14  and  C8_16
REMARK                            x       y       z     vdW  Elec       q    Type
REMARK                         _______ _______ _______ _____ _____    ______ ____
ROOT
ATOM      1  C3  UNL     1      14.440  -4.426   6.119  0.00  0.00    +0.241 A 
ATOM      2  N2  UNL     1      14.106  -3.163   5.746  0.00  0.00    -0.178 NA
ATOM      3  C4  UNL     1      14.039  -2.835   4.430  0.00  0.00    +0.252 A 
ATOM      4  N3  UNL     1      13.688  -1.508   4.033  0.00  0.00    -0.126 N 
ATOM      5  N6  UNL     1      14.305  -3.774   3.488  0.00  0.00    -0.179 NA
ATOM      6  C5  UNL     1      14.640  -5.040   3.853  0.00  0.00    +0.221 A 
ATOM      7  N7  UNL     1      14.705  -5.359   5.171  0.00  0.00    -0.180 NA
ATOM      8  N8  UNL     1      14.924  -6.045   2.866  0.00  0.00    -0.311 N 
ATOM      9  H6  UNL     1      13.638  -1.265   3.018  0.00  0.00    +0.193 HD
ATOM     10  H7  UNL     1      15.176  -6.999   3.211  0.00  0.00    +0.149 HD
ENDROOT
BRANCH   8  11
ATOM     11  C6  UNL     1      14.892  -5.842   1.412  0.00  0.00    +0.067 C 
ATOM     12  C7  UNL     1      15.830  -6.815   0.690  0.00  0.00    +0.027 C 
ATOM     13  C8  UNL     1      13.461  -5.919   0.869  0.00  0.00    +0.027 C 
ENDBRANCH   8  11
BRANCH   4  14
ATOM     14  N4  UNL     1      13.418  -0.553   4.958  0.00  0.00    -0.126 NA
ATOM     15  N5  UNL     1      13.195   0.236   5.722  0.00  0.00    -0.017 NA
ENDBRANCH   4  14
BRANCH   1  16
ATOM     16  N1  UNL     1      14.515  -4.783   7.500  0.00  0.00    -0.216 NA
BRANCH  16  18
ATOM     17  C1  UNL     1      13.645  -4.815   9.775  0.00  0.00    +0.026 C 
ATOM     18  C2  UNL     1      13.958  -3.954   8.562  0.00  0.00    +0.128 C 
ENDBRANCH  16  18
ENDBRANCH   1  16
TORSDOF 4
ENDMDL
MODEL 8
REMARK minimizedAffinity -4.3803134
REMARK minimizedRMSD -1
REMARK  Name = /home/tchapet/Post-Doc/ARTICLES-DOSSIERS-DES-ARTICLES-EN-REDACTION/NOUVELS-AXES-DE-RECHERCHE-A-REGARDER-URGEMMENT/ARTICLES-EN-REDACTIONS/ARTICLE_MVOTO/Paper2_Sensors_ActuatorsB/docking_rerun/ligands/17851.pdb
REMARK  7 active torsions:
REMARK  status: ('A' for Active; 'I' for Inactive)
REMARK    1  A    between atoms: C1_1  and  C2_2
REMARK    2  A    between atoms: C2_2  and  N1_3
REMARK    3  A    between atoms: N1_3  and  C3_4
REMARK    4  A    between atoms: N3_7  and  N4_8
REMARK    5  A    between atoms: N8_13  and  C6_14
REMARK    6  A    between atoms: C6_14  and  C7_15
REMARK    7  A    between atoms: C6_14  and  C8_16
REMARK                            x       y       z     vdW  Elec       q    Type
REMARK                         _______ _______ _______ _____ _____    ______ ____
ROOT
ATOM      1  C3  UNL     1      -1.114 -14.599  21.354  0.00  0.00    +0.241 A 
ATOM      2  N2  UNL     1      -0.125 -15.324  20.769  0.00  0.00    -0.178 NA
ATOM      3  C4  UNL     1       0.346 -14.973  19.545  0.00  0.00    +0.252 A 
ATOM      4  N3  UNL     1       1.385 -15.732  18.925  0.00  0.00    -0.126 N 
ATOM      5  N6  UNL     1      -0.173 -13.893  18.909  0.00  0.00    -0.179 NA
ATOM      6  C5  UNL     1      -1.161 -13.161  19.488  0.00  0.00    +0.221 A 
ATOM      7  N7  UNL     1      -1.628 -13.520  20.711  0.00  0.00    -0.180 NA
ATOM      8  N8  UNL     1      -1.721 -12.015  18.826  0.00  0.00    -0.311 N 
ATOM      9  H6  UNL     1       1.742 -15.453  17.983  0.00  0.00    +0.193 HD
ATOM     10  H7  UNL     1      -2.478 -11.496  19.324  0.00  0.00    +0.149 HD
ENDROOT
BRANCH   8  11
ATOM     11  C6  UNL     1      -1.315 -11.514  17.506  0.00  0.00    +0.067 C 
ATOM     12  C7  UNL     1      -2.504 -11.456  16.541  0.00  0.00    +0.027 C 
ATOM     13  C8  UNL     1      -0.603 -10.162  17.617  0.00  0.00    +0.027 C 
ENDBRANCH   8  11
BRANCH   4  14
ATOM     14  N4  UNL     1       1.919 -16.816  19.543  0.00  0.00    -0.126 NA
ATOM     15  N5  UNL     1       2.359 -17.710  20.054  0.00  0.00    -0.017 NA
ENDBRANCH   4  14
BRANCH   1  16
ATOM     16  N1  UNL     1      -1.618 -14.959  22.641  0.00  0.00    -0.216 NA
BRANCH  16  18
ATOM     17  C1  UNL     1      -0.090 -14.753  24.527  0.00  0.00    +0.026 C 
ATOM     18  C2  UNL     1      -1.329 -14.193  23.846  0.00  0.00    +0.128 C 
ENDBRANCH  16  18
ENDBRANCH   1  16
TORSDOF 4
ENDMDL
MODEL 9
REMARK minimizedAffinity -4.36866522
REMARK minimizedRMSD -1
REMARK  Name = /home/tchapet/Post-Doc/ARTICLES-DOSSIERS-DES-ARTICLES-EN-REDACTION/NOUVELS-AXES-DE-RECHERCHE-A-REGARDER-URGEMMENT/ARTICLES-EN-REDACTIONS/ARTICLE_MVOTO/Paper2_Sensors_ActuatorsB/docking_rerun/ligands/17851.pdb
REMARK  7 active torsions:
REMARK  status: ('A' for Active; 'I' for Inactive)
REMARK    1  A    between atoms: C1_1  and  C2_2
REMARK    2  A    between atoms: C2_2  and  N1_3
REMARK    3  A    between atoms: N1_3  and  C3_4
REMARK    4  A    between atoms: N3_7  and  N4_8
REMARK    5  A    between atoms: N8_13  and  C6_14
REMARK    6  A    between atoms: C6_14  and  C7_15
REMARK    7  A    between atoms: C6_14  and  C8_16
REMARK                            x       y       z     vdW  Elec       q    Type
REMARK                         _______ _______ _______ _____ _____    ______ ____
ROOT
ATOM      1  C3  UNL     1       2.099  14.915  20.290  0.00  0.00    +0.241 A 
ATOM      2  N2  UNL     1       1.194  15.166  21.272  0.00  0.00    -0.178 NA
ATOM      3  C4  UNL     1      -0.087  15.487  20.954  0.00  0.00    +0.252 A 
ATOM      4  N3  UNL     1      -1.043  15.752  21.982  0.00  0.00    -0.126 N 
ATOM      5  N6  UNL     1      -0.460  15.553  19.652  0.00  0.00    -0.179 NA
ATOM      6  C5  UNL     1       0.439  15.303  18.663  0.00  0.00    +0.221 A 
ATOM      7  N7  UNL     1       1.718  14.984  18.990  0.00  0.00    -0.180 NA
ATOM      8  N8  UNL     1       0.059  15.370  17.280  0.00  0.00    -0.311 N 
ATOM      9  H6  UNL     1      -2.026  15.996  21.728  0.00  0.00    +0.193 HD
ATOM     10  H7  UNL     1       0.797  15.167  16.568  0.00  0.00    +0.149 HD
ENDROOT
BRANCH   8  11
ATOM     11  C6  UNL     1      -1.283  15.701  16.782  0.00  0.00    +0.067 C 
ATOM     12  C7  UNL     1      -1.263  16.968  15.921  0.00  0.00    +0.027 C 
ATOM     13  C8  UNL     1      -1.913  14.517  16.041  0.00  0.00    +0.027 C 
ENDBRANCH   8  11
BRANCH   4  14
ATOM     14  N4  UNL     1      -0.691  15.691  23.291  0.00  0.00    -0.126 NA
ATOM     15  N5  UNL     1      -0.401  15.639  24.372  0.00  0.00    -0.017 NA
ENDBRANCH   4  14
BRANCH   1  16
ATOM     16  N1  UNL     1       3.449  14.578  20.613  0.00  0.00    -0.216 NA
BRANCH  16  18
ATOM     17  C1  UNL     1       5.755  13.927  20.175  0.00  0.00    +0.026 C 
ATOM     18  C2  UNL     1       4.539  14.674  19.651  0.00  0.00    +0.128 C 
ENDBRANCH  16  18
ENDBRANCH   1  16
TORSDOF 4
ENDMDL
