MODEL 1
REMARK minimizedAffinity -5.68310452
REMARK minimizedRMSD -1
REMARK  Name = /home/tchapet/Post-Doc/ARTICLES-DOSSIERS-DES-ARTICLES-EN-REDACTION/NOUVELS-AXES-DE-RECHERCHE-A-REGARDER-URGEMMENT/ARTICLES-EN-REDACTIONS/ARTICLE_MVOTO/Paper2_Sensors_ActuatorsB/docking_rerun/ligands/17851.pdb
REMARK  7 active torsions:
REMARK  status: ('A' for Active; 'I' for Inactive)
REMARK    1  A    between atoms: C1_1  and  C2_2
REMARK    2  A    between atoms: C2_2  and  N1_3
REMARK    3  A    between atoms: N1_3  and  C3_4
REMARK    4  A    between atoms: N3_7  and  N4_8
REMARK    5  A    between atoms: N8_13  and  C6_14
REMARK    6  A    between atoms: C6_14  and  C7_15
REMARK    7  A    between atoms: C6_14  and  C8_16
REMARK                            x       y       z     vdW  Elec       q    Type
REMARK                         _______ _______ _______ _____ _____    ______ ____
ROOT
ATOM      1  C3  UNL     1      -9.630  16.784  29.879  0.00  0.00    +0.241 A 
ATOM      2  N2  UNL     1     -10.075  16.647  31.156  0.00  0.00    -0.178 NA
ATOM      3  C4  UNL     1     -11.111  15.814  31.432  0.00  0.00    +0.252 A 
ATOM      4  N3  UNL     1     -11.583  15.667  32.772  0.00  0.00    -0.126 N 
ATOM      5  N6  UNL     1     -11.699  15.116  30.429  0.00  0.00    -0.179 NA
ATOM      6  C5  UNL     1     -11.259  15.246  29.149  0.00  0.00    +0.221 A 
ATOM      7  N7  UNL     1     -10.224  16.082  28.881  0.00  0.00    -0.180 NA
ATOM      8  N8  UNL     1     -11.872  14.513  28.076  0.00  0.00    -0.311 N 
ATOM      9  H6  UNL     1     -12.380  15.023  32.976  0.00  0.00    +0.193 HD
ATOM     10  H7  UNL     1     -11.489  14.658  27.115  0.00  0.00    +0.149 HD
ENDROOT
BRANCH   8  11
ATOM     11  C6  UNL     1     -12.996  13.578  28.219  0.00  0.00    +0.067 C 
ATOM     12  C7  UNL     1     -14.343  14.300  28.100  0.00  0.00    +0.027 C 
ATOM     13  C8  UNL     1     -12.883  12.413  27.229  0.00  0.00    +0.027 C 
ENDBRANCH   8  11
BRANCH   4  14
ATOM     14  N4  UNL     1     -11.009  16.355  33.791  0.00  0.00    -0.126 NA
ATOM     15  N5  UNL     1     -10.535  16.923  34.633  0.00  0.00    -0.017 NA
ENDBRANCH   4  14
BRANCH   1  16
ATOM     16  N1  UNL     1      -8.542  17.658  29.576  0.00  0.00    -0.216 NA
BRANCH  16  18
ATOM     17  C1  UNL     1      -7.534  18.714  27.626  0.00  0.00    +0.026 C 
ATOM     18  C2  UNL     1      -7.643  17.441  28.450  0.00  0.00    +0.128 C 
ENDBRANCH  16  18
ENDBRANCH   1  16
TORSDOF 4
ENDMDL
MODEL 2
REMARK minimizedAffinity -5.58766603
REMARK minimizedRMSD -1
REMARK  Name = /home/tchapet/Post-Doc/ARTICLES-DOSSIERS-DES-ARTICLES-EN-REDACTION/NOUVELS-AXES-DE-RECHERCHE-A-REGARDER-URGEMMENT/ARTICLES-EN-REDACTIONS/ARTICLE_MVOTO/Paper2_Sensors_ActuatorsB/docking_rerun/ligands/17851.pdb
REMARK  7 active torsions:
REMARK  status: ('A' for Active; 'I' for Inactive)
REMARK    1  A    between atoms: C1_1  and  C2_2
REMARK    2  A    between atoms: C2_2  and  N1_3
REMARK    3  A    between atoms: N1_3  and  C3_4
REMARK    4  A    between atoms: N3_7  and  N4_8
REMARK    5  A    between atoms: N8_13  and  C6_14
REMARK    6  A    between atoms: C6_14  and  C7_15
REMARK    7  A    between atoms: C6_14  and  C8_16
REMARK                            x       y       z     vdW  Elec       q    Type
REMARK                         _______ _______ _______ _____ _____    ______ ____
ROOT
ATOM      1  C3  UNL     1      -9.211  17.120  26.160  0.00  0.00    +0.241 A 
ATOM      2  N2  UNL     1      -8.069  17.851  26.077  0.00  0.00    -0.178 NA
ATOM      3  C4  UNL     1      -7.278  18.009  27.169  0.00  0.00    +0.252 A 
ATOM      4  N3  UNL     1      -6.076  18.776  27.087  0.00  0.00    -0.126 N 
ATOM      5  N6  UNL     1      -7.632  17.432  28.344  0.00  0.00    -0.179 NA
ATOM      6  C5  UNL     1      -8.773  16.698  28.436  0.00  0.00    +0.221 A 
ATOM      7  N7  UNL     1      -9.558  16.547  27.339  0.00  0.00    -0.180 NA
ATOM      8  N8  UNL     1      -9.161  16.082  29.674  0.00  0.00    -0.311 N 
ATOM      9  H6  UNL     1      -5.474  18.891  27.932  0.00  0.00    +0.193 HD
ATOM     10  H7  UNL     1     -10.049  15.532  29.680  0.00  0.00    +0.149 HD
ENDROOT
BRANCH   8  11
ATOM     11  C6  UNL     1      -8.411  16.162  30.935  0.00  0.00    +0.067 C 
ATOM     12  C7  UNL     1      -8.681  17.483  31.663  0.00  0.00    +0.027 C 
ATOM     13  C8  UNL     1      -8.690  14.949  31.830  0.00  0.00    +0.027 C 
ENDBRANCH   8  11
BRANCH   4  14
ATOM     14  N4  UNL     1      -5.703  19.362  25.921  0.00  0.00    -0.126 NA
ATOM     15  N5  UNL     1      -5.394  19.845  24.958  0.00  0.00    -0.017 NA
ENDBRANCH   4  14
BRANCH   1  16
ATOM     16  N1  UNL     1     -10.052  16.948  25.018  0.00  0.00    -0.216 NA
BRANCH  16  18
ATOM     17  C1  UNL     1     -10.729  16.131  22.825  0.00  0.00    +0.026 C 
ATOM     18  C2  UNL     1      -9.557  16.449  23.741  0.00  0.00    +0.128 C 
ENDBRANCH  16  18
ENDBRANCH   1  16
TORSDOF 4
ENDMDL
MODEL 3
REMARK minimizedAffinity -5.56977987
REMARK minimizedRMSD -1
REMARK  Name = /home/tchapet/Post-Doc/ARTICLES-DOSSIERS-DES-ARTICLES-EN-REDACTION/NOUVELS-AXES-DE-RECHERCHE-A-REGARDER-URGEMMENT/ARTICLES-EN-REDACTIONS/ARTICLE_MVOTO/Paper2_Sensors_ActuatorsB/docking_rerun/ligands/17851.pdb
REMARK  7 active torsions:
REMARK  status: ('A' for Active; 'I' for Inactive)
REMARK    1  A    between atoms: C1_1  and  C2_2
REMARK    2  A    between atoms: C2_2  and  N1_3
REMARK    3  A    between atoms: N1_3  and  C3_4
REMARK    4  A    between atoms: N3_7  and  N4_8
REMARK    5  A    between atoms: N8_13  and  C6_14
REMARK    6  A    between atoms: C6_14  and  C7_15
REMARK    7  A    between atoms: C6_14  and  C8_16
REMARK                            x       y       z     vdW  Elec       q    Type
REMARK                         _______ _______ _______ _____ _____    ______ ____
ROOT
ATOM      1  C3  UNL     1     -10.525  16.051  28.876  0.00  0.00    +0.241 A 
ATOM      2  N2  UNL     1     -11.121  14.830  28.867  0.00  0.00    -0.178 NA
ATOM      3  C4  UNL     1     -11.175  14.104  27.721  0.00  0.00    +0.252 A 
ATOM      4  N3  UNL     1     -11.802  12.821  27.707  0.00  0.00    -0.126 N 
ATOM      5  N6  UNL     1     -10.629  14.602  26.584  0.00  0.00    -0.179 NA
ATOM      6  C5  UNL     1     -10.030  15.822  26.584  0.00  0.00    +0.221 A 
ATOM      7  N7  UNL     1      -9.981  16.542  27.734  0.00  0.00    -0.180 NA
ATOM      8  N8  UNL     1      -9.448  16.363  25.387  0.00  0.00    -0.311 N 
ATOM      9  H6  UNL     1     -11.838  12.269  26.820  0.00  0.00    +0.193 HD
ATOM     10  H7  UNL     1      -9.003  17.306  25.452  0.00  0.00    +0.149 HD
ENDROOT
BRANCH   8  11
ATOM     11  C6  UNL     1      -9.427  15.698  24.077  0.00  0.00    +0.067 C 
ATOM     12  C7  UNL     1     -10.557  16.206  23.175  0.00  0.00    +0.027 C 
ATOM     13  C8  UNL     1      -8.057  15.830  23.404  0.00  0.00    +0.027 C 
ENDBRANCH   8  11
BRANCH   4  14
ATOM     14  N4  UNL     1     -12.354  12.303  28.833  0.00  0.00    -0.126 NA
ATOM     15  N5  UNL     1     -12.810  11.875  29.763  0.00  0.00    -0.017 NA
ENDBRANCH   4  14
BRANCH   1  16
ATOM     16  N1  UNL     1     -10.463  16.823  30.076  0.00  0.00    -0.216 NA
BRANCH  16  18
ATOM     17  C1  UNL     1      -8.366  16.803  31.316  0.00  0.00    +0.026 C 
ATOM     18  C2  UNL     1      -9.301  17.624  30.441  0.00  0.00    +0.128 C 
ENDBRANCH  16  18
ENDBRANCH   1  16
TORSDOF 4
ENDMDL
MODEL 4
REMARK minimizedAffinity -5.55117035
REMARK minimizedRMSD -1
REMARK  Name = /home/tchapet/Post-Doc/ARTICLES-DOSSIERS-DES-ARTICLES-EN-REDACTION/NOUVELS-AXES-DE-RECHERCHE-A-REGARDER-URGEMMENT/ARTICLES-EN-REDACTIONS/ARTICLE_MVOTO/Paper2_Sensors_ActuatorsB/docking_rerun/ligands/17851.pdb
REMARK  7 active torsions:
REMARK  status: ('A' for Active; 'I' for Inactive)
REMARK    1  A    between atoms: C1_1  and  C2_2
REMARK    2  A    between atoms: C2_2  and  N1_3
REMARK    3  A    between atoms: N1_3  and  C3_4
REMARK    4  A    between atoms: N3_7  and  N4_8
REMARK    5  A    between atoms: N8_13  and  C6_14
REMARK    6  A    between atoms: C6_14  and  C7_15
REMARK    7  A    between atoms: C6_14  and  C8_16
REMARK                            x       y       z     vdW  Elec       q    Type
REMARK                         _______ _______ _______ _____ _____    ______ ____
ROOT
ATOM      1  C3  UNL     1     -10.601  14.579  28.268  0.00  0.00    +0.241 A 
ATOM      2  N2  UNL     1     -10.075  15.625  27.579  0.00  0.00    -0.178 NA
ATOM      3  C4  UNL     1      -9.504  16.663  28.243  0.00  0.00    +0.252 A 
ATOM      4  N3  UNL     1      -8.951  17.765  27.524  0.00  0.00    -0.126 N 
ATOM      5  N6  UNL     1      -9.460  16.650  29.599  0.00  0.00    -0.179 NA
ATOM      6  C5  UNL     1      -9.983  15.606  30.296  0.00  0.00    +0.221 A 
ATOM      7  N7  UNL     1     -10.552  14.574  29.624  0.00  0.00    -0.180 NA
ATOM      8  N8  UNL     1      -9.942  15.579  31.732  0.00  0.00    -0.311 N 
ATOM      9  H6  UNL     1      -8.513  18.558  28.043  0.00  0.00    +0.193 HD
ATOM     10  H7  UNL     1     -10.362  14.750  32.208  0.00  0.00    +0.149 HD
ENDROOT
BRANCH   8  11
ATOM     11  C6  UNL     1      -9.360  16.623  32.586  0.00  0.00    +0.067 C 
ATOM     12  C7  UNL     1      -9.946  16.579  34.001  0.00  0.00    +0.027 C 
ATOM     13  C8  UNL     1      -7.830  16.546  32.598  0.00  0.00    +0.027 C 
ENDBRANCH   8  11
BRANCH   4  14
ATOM     14  N4  UNL     1      -8.984  17.798  26.168  0.00  0.00    -0.126 NA
ATOM     15  N5  UNL     1      -9.013  17.826  25.048  0.00  0.00    -0.017 NA
ENDBRANCH   4  14
BRANCH   1  16
ATOM     16  N1  UNL     1     -11.204  13.482  27.580  0.00  0.00    -0.216 NA
BRANCH  16  18
ATOM     17  C1  UNL     1     -13.357  12.378  27.288  0.00  0.00    +0.026 C 
ATOM     18  C2  UNL     1     -12.165  12.585  28.210  0.00  0.00    +0.128 C 
ENDBRANCH  16  18
ENDBRANCH   1  16
TORSDOF 4
ENDMDL
MODEL 5
REMARK minimizedAffinity -5.49743128
REMARK minimizedRMSD -1
REMARK  Name = /home/tchapet/Post-Doc/ARTICLES-DOSSIERS-DES-ARTICLES-EN-REDACTION/NOUVELS-AXES-DE-RECHERCHE-A-REGARDER-URGEMMENT/ARTICLES-EN-REDACTIONS/ARTICLE_MVOTO/Paper2_Sensors_ActuatorsB/docking_rerun/ligands/17851.pdb
REMARK  7 active torsions:
REMARK  status: ('A' for Active; 'I' for Inactive)
REMARK    1  A    between atoms: C1_1  and  C2_2
REMARK    2  A    between atoms: C2_2  and  N1_3
REMARK    3  A    between atoms: N1_3  and  C3_4
REMARK    4  A    between atoms: N3_7  and  N4_8
REMARK    5  A    between atoms: N8_13  and  C6_14
REMARK    6  A    between atoms: C6_14  and  C7_15
REMARK    7  A    between atoms: C6_14  and  C8_16
REMARK                            x       y       z     vdW  Elec       q    Type
REMARK                         _______ _______ _______ _____ _____    ______ ____
ROOT
ATOM      1  C3  UNL     1      -8.907  16.000  30.630  0.00  0.00    +0.241 A 
ATOM      2  N2  UNL     1      -8.614  16.811  29.580  0.00  0.00    -0.178 NA
ATOM      3  C4  UNL     1      -9.297  16.689  28.412  0.00  0.00    +0.252 A 
ATOM      4  N3  UNL     1      -8.993  17.538  27.305  0.00  0.00    -0.126 N 
ATOM      5  N6  UNL     1     -10.273  15.754  28.299  0.00  0.00    -0.179 NA
ATOM      6  C5  UNL     1     -10.572  14.939  29.345  0.00  0.00    +0.221 A 
ATOM      7  N7  UNL     1      -9.885  15.068  30.508  0.00  0.00    -0.180 NA
ATOM      8  N8  UNL     1     -11.604  13.945  29.240  0.00  0.00    -0.311 N 
ATOM      9  H6  UNL     1      -9.524  17.437  26.411  0.00  0.00    +0.193 HD
ATOM     10  H7  UNL     1     -11.785  13.350  30.079  0.00  0.00    +0.149 HD
ENDROOT
BRANCH   8  11
ATOM     11  C6  UNL     1     -12.425  13.695  28.047  0.00  0.00    +0.067 C 
ATOM     12  C7  UNL     1     -12.372  12.222  27.631  0.00  0.00    +0.027 C 
ATOM     13  C8  UNL     1     -13.865  14.180  28.248  0.00  0.00    +0.027 C 
ENDBRANCH   8  11
BRANCH   4  14
ATOM     14  N4  UNL     1      -8.020  18.480  27.396  0.00  0.00    -0.126 NA
ATOM     15  N5  UNL     1      -7.217  19.258  27.471  0.00  0.00    -0.017 NA
ENDBRANCH   4  14
BRANCH   1  16
ATOM     16  N1  UNL     1      -8.195  16.120  31.863  0.00  0.00    -0.216 NA
BRANCH  16  18
ATOM     17  C1  UNL     1      -9.496  16.742  33.826  0.00  0.00    +0.026 C 
ATOM     18  C2  UNL     1      -8.446  17.189  32.821  0.00  0.00    +0.128 C 
ENDBRANCH  16  18
ENDBRANCH   1  16
TORSDOF 4
ENDMDL
MODEL 6
REMARK minimizedAffinity -5.46124983
REMARK minimizedRMSD -1
REMARK  Name = /home/tchapet/Post-Doc/ARTICLES-DOSSIERS-DES-ARTICLES-EN-REDACTION/NOUVELS-AXES-DE-RECHERCHE-A-REGARDER-URGEMMENT/ARTICLES-EN-REDACTIONS/ARTICLE_MVOTO/Paper2_Sensors_ActuatorsB/docking_rerun/ligands/17851.pdb
REMARK  7 active torsions:
REMARK  status: ('A' for Active; 'I' for Inactive)
REMARK    1  A    between atoms: C1_1  and  C2_2
REMARK    2  A    between atoms: C2_2  and  N1_3
REMARK    3  A    between atoms: N1_3  and  C3_4
REMARK    4  A    between atoms: N3_7  and  N4_8
REMARK    5  A    between atoms: N8_13  and  C6_14
REMARK    6  A    between atoms: C6_14  and  C7_15
REMARK    7  A    between atoms: C6_14  and  C8_16
REMARK                            x       y       z     vdW  Elec       q    Type
REMARK                         _______ _______ _______ _____ _____    ______ ____
ROOT
ATOM      1  C3  UNL     1      -8.031  15.787  26.951  0.00  0.00    +0.241 A 
ATOM      2  N2  UNL     1      -8.373  16.111  25.677  0.00  0.00    -0.178 NA
ATOM      3  C4  UNL     1      -9.578  15.735  25.176  0.00  0.00    +0.252 A 
ATOM      4  N3  UNL     1      -9.942  16.073  23.837  0.00  0.00    -0.126 N 
ATOM      5  N6  UNL     1     -10.440  15.036  25.955  0.00  0.00    -0.179 NA
ATOM      6  C5  UNL     1     -10.107  14.709  27.231  0.00  0.00    +0.221 A 
ATOM      7  N7  UNL     1      -8.900  15.088  27.723  0.00  0.00    -0.180 NA
ATOM      8  N8  UNL     1     -11.011  13.969  28.068  0.00  0.00    -0.311 N 
ATOM      9  H6  UNL     1     -10.871  15.781  23.461  0.00  0.00    +0.193 HD
ATOM     10  H7  UNL     1     -10.694  13.748  29.039  0.00  0.00    +0.149 HD
ENDROOT
BRANCH   8  11
ATOM     11  C6  UNL     1     -12.343  13.496  27.669  0.00  0.00    +0.067 C 
ATOM     12  C7  UNL     1     -12.464  11.975  27.818  0.00  0.00    +0.027 C 
ATOM     13  C8  UNL     1     -13.449  14.234  28.431  0.00  0.00    +0.027 C 
ENDBRANCH   8  11
BRANCH   4  14
ATOM     14  N4  UNL     1      -9.094  16.772  23.041  0.00  0.00    -0.126 NA
ATOM     15  N5  UNL     1      -8.394  17.349  22.383  0.00  0.00    -0.017 NA
ENDBRANCH   4  14
BRANCH   1  16
ATOM     16  N1  UNL     1      -6.766  16.177  27.488  0.00  0.00    -0.216 NA
BRANCH  16  18
ATOM     17  C1  UNL     1      -6.505  18.596  27.363  0.00  0.00    +0.026 C 
ATOM     18  C2  UNL     1      -5.960  17.248  26.916  0.00  0.00    +0.128 C 
ENDBRANCH  16  18
ENDBRANCH   1  16
TORSDOF 4
ENDMDL
MODEL 7
REMARK minimizedAffinity -5.46051407
REMARK minimizedRMSD -1
REMARK  Name = /home/tchapet/Post-Doc/ARTICLES-DOSSIERS-DES-ARTICLES-EN-REDACTION/NOUVELS-AXES-DE-RECHERCHE-A-REGARDER-URGEMMENT/ARTICLES-EN-REDACTIONS/ARTICLE_MVOTO/Paper2_Sensors_ActuatorsB/docking_rerun/ligands/17851.pdb
REMARK  7 active torsions:
REMARK  status: ('A' for Active; 'I' for Inactive)
REMARK    1  A    between atoms: C1_1  and  C2_2
REMARK    2  A    between atoms: C2_2  and  N1_3
REMARK    3  A    between atoms: N1_3  and  C3_4
REMARK    4  A    between atoms: N3_7  and  N4_8
REMARK    5  A    between atoms: N8_13  and  C6_14
REMARK    6  A    between atoms: C6_14  and  C7_15
REMARK    7  A    between atoms: C6_14  and  C8_16
REMARK                            x       y       z     vdW  Elec       q    Type
REMARK                         _______ _______ _______ _____ _____    ______ ____
ROOT
ATOM      1  C3  UNL     1      -9.616  14.749  28.051  0.00  0.00    +0.241 A 
ATOM      2  N2  UNL     1      -9.546  15.010  29.382  0.00  0.00    -0.178 NA
ATOM      3  C4  UNL     1      -8.589  15.844  29.865  0.00  0.00    +0.252 A 
ATOM      4  N3  UNL     1      -8.511  16.121  31.264  0.00  0.00    -0.126 N 
ATOM      5  N6  UNL     1      -7.704  16.417  29.012  0.00  0.00    -0.179 NA
ATOM      6  C5  UNL     1      -7.767  16.162  27.678  0.00  0.00    +0.221 A 
ATOM      7  N7  UNL     1      -8.726  15.326  27.204  0.00  0.00    -0.180 NA
ATOM      8  N8  UNL     1      -6.836  16.762  26.763  0.00  0.00    -0.311 N 
ATOM      9  H6  UNL     1      -7.772  16.765  31.626  0.00  0.00    +0.193 HD
ATOM     10  H7  UNL     1      -6.938  16.524  25.751  0.00  0.00    +0.149 HD
ENDROOT
BRANCH   8  11
ATOM     11  C6  UNL     1      -5.752  17.681  27.134  0.00  0.00    +0.067 C 
ATOM     12  C7  UNL     1      -4.494  17.427  26.297  0.00  0.00    +0.027 C 
ATOM     13  C8  UNL     1      -6.207  19.142  27.054  0.00  0.00    +0.027 C 
ENDBRANCH   8  11
BRANCH   4  14
ATOM     14  N4  UNL     1      -9.386  15.559  32.135  0.00  0.00    -0.126 NA
ATOM     15  N5  UNL     1     -10.109  15.095  32.855  0.00  0.00    -0.017 NA
ENDBRANCH   4  14
BRANCH   1  16
ATOM     16  N1  UNL     1     -10.617  13.873  27.531  0.00  0.00    -0.216 NA
BRANCH  16  18
ATOM     17  C1  UNL     1     -12.497  12.323  27.549  0.00  0.00    +0.026 C 
ATOM     18  C2  UNL     1     -11.719  13.365  28.339  0.00  0.00    +0.128 C 
ENDBRANCH  16  18
ENDBRANCH   1  16
TORSDOF 4
ENDMDL
MODEL 8
REMARK minimizedAffinity -5.44599247
REMARK minimizedRMSD -1
REMARK  Name = /home/tchapet/Post-Doc/ARTICLES-DOSSIERS-DES-ARTICLES-EN-REDACTION/NOUVELS-AXES-DE-RECHERCHE-A-REGARDER-URGEMMENT/ARTICLES-EN-REDACTIONS/ARTICLE_MVOTO/Paper2_Sensors_ActuatorsB/docking_rerun/ligands/17851.pdb
REMARK  7 active torsions:
REMARK  status: ('A' for Active; 'I' for Inactive)
REMARK    1  A    between atoms: C1_1  and  C2_2
REMARK    2  A    between atoms: C2_2  and  N1_3
REMARK    3  A    between atoms: N1_3  and  C3_4
REMARK    4  A    between atoms: N3_7  and  N4_8
REMARK    5  A    between atoms: N8_13  and  C6_14
REMARK    6  A    between atoms: C6_14  and  C7_15
REMARK    7  A    between atoms: C6_14  and  C8_16
REMARK                            x       y       z     vdW  Elec       q    Type
REMARK                         _______ _______ _______ _____ _____    ______ ____
ROOT
ATOM      1  C3  UNL     1       4.500  25.871  33.133  0.00  0.00    +0.241 A 
ATOM      2  N2  UNL     1       3.568  25.620  32.177  0.00  0.00    -0.178 NA
ATOM      3  C4  UNL     1       3.130  26.620  31.370  0.00  0.00    +0.252 A 
ATOM      4  N3  UNL     1       2.150  26.361  30.363  0.00  0.00    -0.126 N 
ATOM      5  N6  UNL     1       3.628  27.873  31.522  0.00  0.00    -0.179 NA
ATOM      6  C5  UNL     1       4.561  28.133  32.476  0.00  0.00    +0.221 A 
ATOM      7  N7  UNL     1       4.992  27.126  33.278  0.00  0.00    -0.180 NA
ATOM      8  N8  UNL     1       5.097  29.454  32.648  0.00  0.00    -0.311 N 
ATOM      9  H6  UNL     1       1.821  27.137  29.747  0.00  0.00    +0.193 HD
ATOM     10  H7  UNL     1       5.811  29.589  33.400  0.00  0.00    +0.149 HD
ENDROOT
BRANCH   8  11
ATOM     11  C6  UNL     1       4.724  30.633  31.855  0.00  0.00    +0.067 C 
ATOM     12  C7  UNL     1       4.401  31.832  32.754  0.00  0.00    +0.027 C 
ATOM     13  C8  UNL     1       5.799  30.971  30.816  0.00  0.00    +0.027 C 
ENDBRANCH   8  11
BRANCH   4  14
ATOM     14  N4  UNL     1       1.639  25.116  30.194  0.00  0.00    -0.126 NA
ATOM     15  N5  UNL     1       1.217  24.088  30.053  0.00  0.00    -0.017 NA
ENDBRANCH   4  14
BRANCH   1  16
ATOM     16  N1  UNL     1       4.967  24.826  33.987  0.00  0.00    -0.216 NA
BRANCH  16  18
ATOM     17  C1  UNL     1       4.571  22.892  35.415  0.00  0.00    +0.026 C 
ATOM     18  C2  UNL     1       4.340  23.512  34.046  0.00  0.00    +0.128 C 
ENDBRANCH  16  18
ENDBRANCH   1  16
TORSDOF 4
ENDMDL
MODEL 9
REMARK minimizedAffinity -5.43165588
REMARK minimizedRMSD -1
REMARK  Name = /home/tchapet/Post-Doc/ARTICLES-DOSSIERS-DES-ARTICLES-EN-REDACTION/NOUVELS-AXES-DE-RECHERCHE-A-REGARDER-URGEMMENT/ARTICLES-EN-REDACTIONS/ARTICLE_MVOTO/Paper2_Sensors_ActuatorsB/docking_rerun/ligands/17851.pdb
REMARK  7 active torsions:
REMARK  status: ('A' for Active; 'I' for Inactive)
REMARK    1  A    between atoms: C1_1  and  C2_2
REMARK    2  A    between atoms: C2_2  and  N1_3
REMARK    3  A    between atoms: N1_3  and  C3_4
REMARK    4  A    between atoms: N3_7  and  N4_8
REMARK    5  A    between atoms: N8_13  and  C6_14
REMARK    6  A    between atoms: C6_14  and  C7_15
REMARK    7  A    between atoms: C6_14  and  C8_16
REMARK                            x       y       z     vdW  Elec       q    Type
REMARK                         _______ _______ _______ _____ _____    ______ ____
ROOT
ATOM      1  C3  UNL     1     -10.798  15.580  29.764  0.00  0.00    +0.241 A 
ATOM      2  N2  UNL     1     -10.491  16.025  31.011  0.00  0.00    -0.178 NA
ATOM      3  C4  UNL     1      -9.383  16.784  31.212  0.00  0.00    +0.252 A 
ATOM      4  N3  UNL     1      -9.057  17.253  32.521  0.00  0.00    -0.126 N 
ATOM      5  N6  UNL     1      -8.583  17.097  30.163  0.00  0.00    -0.179 NA
ATOM      6  C5  UNL     1      -8.883  16.657  28.912  0.00  0.00    +0.221 A 
ATOM      7  N7  UNL     1      -9.992  15.898  28.720  0.00  0.00    -0.180 NA
ATOM      8  N8  UNL     1      -8.045  16.981  27.791  0.00  0.00    -0.311 N 
ATOM      9  H6  UNL     1      -8.203  17.837  32.666  0.00  0.00    +0.193 HD
ATOM     10  H7  UNL     1      -8.330  16.612  26.856  0.00  0.00    +0.149 HD
ENDROOT
BRANCH   8  11
ATOM     11  C6  UNL     1      -6.820  17.789  27.851  0.00  0.00    +0.067 C 
ATOM     12  C7  UNL     1      -5.697  17.165  27.017  0.00  0.00    +0.027 C 
ATOM     13  C8  UNL     1      -7.089  19.244  27.450  0.00  0.00    +0.027 C 
ENDBRANCH   8  11
BRANCH   4  14
ATOM     14  N4  UNL     1      -9.843  16.952  33.585  0.00  0.00    -0.126 NA
ATOM     15  N5  UNL     1     -10.492  16.702  34.464  0.00  0.00    -0.017 NA
ENDBRANCH   4  14
BRANCH   1  16
ATOM     16  N1  UNL     1     -11.960  14.781  29.540  0.00  0.00    -0.216 NA
BRANCH  16  18
ATOM     17  C1  UNL     1     -13.507  16.097  28.194  0.00  0.00    +0.026 C 
ATOM     18  C2  UNL     1     -12.708  14.806  28.290  0.00  0.00    +0.128 C 
ENDBRANCH  16  18
ENDBRANCH   1  16
TORSDOF 4
ENDMDL
