MODEL 1
REMARK minimizedAffinity -4.46739197
REMARK minimizedRMSD -1
REMARK  Name = /home/tchapet/Post-Doc/ARTICLES-DOSSIERS-DES-ARTICLES-EN-REDACTION/NOUVELS-AXES-DE-RECHERCHE-A-REGARDER-URGEMMENT/ARTICLES-EN-REDACTIONS/ARTICLE_MVOTO/Paper2_Sensors_ActuatorsB/docking_rerun/ligands/17851.pdb
REMARK  7 active torsions:
REMARK  status: ('A' for Active; 'I' for Inactive)
REMARK    1  A    between atoms: C1_1  and  C2_2
REMARK    2  A    between atoms: C2_2  and  N1_3
REMARK    3  A    between atoms: N1_3  and  C3_4
REMARK    4  A    between atoms: N3_7  and  N4_8
REMARK    5  A    between atoms: N8_13  and  C6_14
REMARK    6  A    between atoms: C6_14  and  C7_15
REMARK    7  A    between atoms: C6_14  and  C8_16
REMARK                            x       y       z     vdW  Elec       q    Type
REMARK                         _______ _______ _______ _____ _____    ______ ____
ROOT
ATOM      1  C3  UNL     1       6.539  14.114  18.442  0.00  0.00    +0.241 A 
ATOM      2  N2  UNL     1       6.016  14.028  19.693  0.00  0.00    -0.178 NA
ATOM      3  C4  UNL     1       4.879  13.319  19.911  0.00  0.00    +0.252 A 
ATOM      4  N3  UNL     1       4.325  13.226  21.225  0.00  0.00    -0.126 N 
ATOM      5  N6  UNL     1       4.266  12.696  18.874  0.00  0.00    -0.179 NA
ATOM      6  C5  UNL     1       4.783  12.776  17.619  0.00  0.00    +0.221 A 
ATOM      7  N7  UNL     1       5.920  13.487  17.410  0.00  0.00    -0.180 NA
ATOM      8  N8  UNL     1       4.145  12.121  16.511  0.00  0.00    -0.311 N 
ATOM      9  H6  UNL     1       3.450  12.678  21.382  0.00  0.00    +0.193 HD
ATOM     10  H7  UNL     1       4.592  12.221  15.572  0.00  0.00    +0.149 HD
ENDROOT
BRANCH   8  11
ATOM     11  C6  UNL     1       2.915  11.321  16.590  0.00  0.00    +0.067 C 
ATOM     12  C7  UNL     1       1.670  12.191  16.391  0.00  0.00    +0.027 C 
ATOM     13  C8  UNL     1       2.951  10.143  15.611  0.00  0.00    +0.027 C 
ENDBRANCH   8  11
BRANCH   4  14
ATOM     14  N4  UNL     1       4.921  13.842  22.276  0.00  0.00    -0.126 NA
ATOM     15  N5  UNL     1       5.413  14.351  23.145  0.00  0.00    -0.017 NA
ENDBRANCH   4  14
BRANCH   1  16
ATOM     16  N1  UNL     1       7.735  14.857  18.201  0.00  0.00    -0.216 NA
BRANCH  16  18
ATOM     17  C1  UNL     1       8.849  16.062  16.401  0.00  0.00    +0.026 C 
ATOM     18  C2  UNL     1       8.535  14.697  16.994  0.00  0.00    +0.128 C 
ENDBRANCH  16  18
ENDBRANCH   1  16
TORSDOF 4
ENDMDL
MODEL 2
REMARK minimizedAffinity -4.44299889
REMARK minimizedRMSD -1
REMARK  Name = /home/tchapet/Post-Doc/ARTICLES-DOSSIERS-DES-ARTICLES-EN-REDACTION/NOUVELS-AXES-DE-RECHERCHE-A-REGARDER-URGEMMENT/ARTICLES-EN-REDACTIONS/ARTICLE_MVOTO/Paper2_Sensors_ActuatorsB/docking_rerun/ligands/17851.pdb
REMARK  7 active torsions:
REMARK  status: ('A' for Active; 'I' for Inactive)
REMARK    1  A    between atoms: C1_1  and  C2_2
REMARK    2  A    between atoms: C2_2  and  N1_3
REMARK    3  A    between atoms: N1_3  and  C3_4
REMARK    4  A    between atoms: N3_7  and  N4_8
REMARK    5  A    between atoms: N8_13  and  C6_14
REMARK    6  A    between atoms: C6_14  and  C7_15
REMARK    7  A    between atoms: C6_14  and  C8_16
REMARK                            x       y       z     vdW  Elec       q    Type
REMARK                         _______ _______ _______ _____ _____    ______ ____
ROOT
ATOM      1  C3  UNL     1       5.458  12.381  18.131  0.00  0.00    +0.241 A 
ATOM      2  N2  UNL     1       6.448  13.240  17.774  0.00  0.00    -0.178 NA
ATOM      3  C4  UNL     1       6.782  14.275  18.587  0.00  0.00    +0.252 A 
ATOM      4  N3  UNL     1       7.822  15.180  18.216  0.00  0.00    -0.126 N 
ATOM      5  N6  UNL     1       6.123  14.447  19.760  0.00  0.00    -0.179 NA
ATOM      6  C5  UNL     1       5.131  13.593  20.126  0.00  0.00    +0.221 A 
ATOM      7  N7  UNL     1       4.803  12.561  19.306  0.00  0.00    -0.180 NA
ATOM      8  N8  UNL     1       4.424  13.763  21.365  0.00  0.00    -0.311 N 
ATOM      9  H6  UNL     1       8.072  15.973  18.848  0.00  0.00    +0.193 HD
ATOM     10  H7  UNL     1       3.672  13.073  21.588  0.00  0.00    +0.149 HD
ENDROOT
BRANCH   8  11
ATOM     11  C6  UNL     1       4.671  14.830  22.344  0.00  0.00    +0.067 C 
ATOM     12  C7  UNL     1       3.359  15.417  22.874  0.00  0.00    +0.027 C 
ATOM     13  C8  UNL     1       5.580  14.346  23.480  0.00  0.00    +0.027 C 
ENDBRANCH   8  11
BRANCH   4  14
ATOM     14  N4  UNL     1       8.494  15.026  17.048  0.00  0.00    -0.126 NA
ATOM     15  N5  UNL     1       9.050  14.899  16.083  0.00  0.00    -0.017 NA
ENDBRANCH   4  14
BRANCH   1  16
ATOM     16  N1  UNL     1       5.098  11.289  17.284  0.00  0.00    -0.216 NA
BRANCH  16  18
ATOM     17  C1  UNL     1       4.725  11.276  14.876  0.00  0.00    +0.026 C 
ATOM     18  C2  UNL     1       4.078  11.396  16.248  0.00  0.00    +0.128 C 
ENDBRANCH  16  18
ENDBRANCH   1  16
TORSDOF 4
ENDMDL
MODEL 3
REMARK minimizedAffinity -4.29531813
REMARK minimizedRMSD -1
REMARK  Name = /home/tchapet/Post-Doc/ARTICLES-DOSSIERS-DES-ARTICLES-EN-REDACTION/NOUVELS-AXES-DE-RECHERCHE-A-REGARDER-URGEMMENT/ARTICLES-EN-REDACTIONS/ARTICLE_MVOTO/Paper2_Sensors_ActuatorsB/docking_rerun/ligands/17851.pdb
REMARK  7 active torsions:
REMARK  status: ('A' for Active; 'I' for Inactive)
REMARK    1  A    between atoms: C1_1  and  C2_2
REMARK    2  A    between atoms: C2_2  and  N1_3
REMARK    3  A    between atoms: N1_3  and  C3_4
REMARK    4  A    between atoms: N3_7  and  N4_8
REMARK    5  A    between atoms: N8_13  and  C6_14
REMARK    6  A    between atoms: C6_14  and  C7_15
REMARK    7  A    between atoms: C6_14  and  C8_16
REMARK                            x       y       z     vdW  Elec       q    Type
REMARK                         _______ _______ _______ _____ _____    ______ ____
ROOT
ATOM      1  C3  UNL     1       6.585  13.851  17.785  0.00  0.00    +0.241 A 
ATOM      2  N2  UNL     1       5.373  13.255  17.636  0.00  0.00    -0.178 NA
ATOM      3  C4  UNL     1       4.444  13.339  18.623  0.00  0.00    +0.252 A 
ATOM      4  N3  UNL     1       3.168  12.715  18.471  0.00  0.00    -0.126 N 
ATOM      5  N6  UNL     1       4.731  14.022  19.760  0.00  0.00    -0.179 NA
ATOM      6  C5  UNL     1       5.941  14.621  19.917  0.00  0.00    +0.221 A 
ATOM      7  N7  UNL     1       6.864  14.531  18.926  0.00  0.00    -0.180 NA
ATOM      8  N8  UNL     1       6.259  15.347  21.116  0.00  0.00    -0.311 N 
ATOM      9  H6  UNL     1       2.460  12.786  19.236  0.00  0.00    +0.193 HD
ATOM     10  H7  UNL     1       7.206  15.784  21.175  0.00  0.00    +0.149 HD
ENDROOT
BRANCH   8  11
ATOM     11  C6  UNL     1       5.362  15.524  22.265  0.00  0.00    +0.067 C 
ATOM     12  C7  UNL     1       5.440  14.332  23.224  0.00  0.00    +0.027 C 
ATOM     13  C8  UNL     1       5.628  16.853  22.982  0.00  0.00    +0.027 C 
ENDBRANCH   8  11
BRANCH   4  14
ATOM     14  N4  UNL     1       2.860  12.028  17.343  0.00  0.00    -0.126 NA
ATOM     15  N5  UNL     1       2.606  11.460  16.411  0.00  0.00    -0.017 NA
ENDBRANCH   4  14
BRANCH   1  16
ATOM     16  N1  UNL     1       7.569  13.769  16.754  0.00  0.00    -0.216 NA
BRANCH  16  18
ATOM     17  C1  UNL     1       8.538  15.790  15.800  0.00  0.00    +0.026 C 
ATOM     18  C2  UNL     1       8.761  14.607  16.730  0.00  0.00    +0.128 C 
ENDBRANCH  16  18
ENDBRANCH   1  16
TORSDOF 4
ENDMDL
MODEL 4
REMARK minimizedAffinity -4.15592813
REMARK minimizedRMSD -1
REMARK  Name = /home/tchapet/Post-Doc/ARTICLES-DOSSIERS-DES-ARTICLES-EN-REDACTION/NOUVELS-AXES-DE-RECHERCHE-A-REGARDER-URGEMMENT/ARTICLES-EN-REDACTIONS/ARTICLE_MVOTO/Paper2_Sensors_ActuatorsB/docking_rerun/ligands/17851.pdb
REMARK  7 active torsions:
REMARK  status: ('A' for Active; 'I' for Inactive)
REMARK    1  A    between atoms: C1_1  and  C2_2
REMARK    2  A    between atoms: C2_2  and  N1_3
REMARK    3  A    between atoms: N1_3  and  C3_4
REMARK    4  A    between atoms: N3_7  and  N4_8
REMARK    5  A    between atoms: N8_13  and  C6_14
REMARK    6  A    between atoms: C6_14  and  C7_15
REMARK    7  A    between atoms: C6_14  and  C8_16
REMARK                            x       y       z     vdW  Elec       q    Type
REMARK                         _______ _______ _______ _____ _____    ______ ____
ROOT
ATOM      1  C3  UNL     1      33.848   7.137  33.170  0.00  0.00    +0.241 A 
ATOM      2  N2  UNL     1      33.586   7.632  31.932  0.00  0.00    -0.178 NA
ATOM      3  C4  UNL     1      32.817   6.927  31.063  0.00  0.00    +0.252 A 
ATOM      4  N3  UNL     1      32.538   7.444  29.761  0.00  0.00    -0.126 N 
ATOM      5  N6  UNL     1      32.311   5.725  31.436  0.00  0.00    -0.179 NA
ATOM      6  C5  UNL     1      32.568   5.222  32.672  0.00  0.00    +0.221 A 
ATOM      7  N7  UNL     1      33.338   5.933  33.535  0.00  0.00    -0.180 NA
ATOM      8  N8  UNL     1      32.038   3.951  33.081  0.00  0.00    -0.311 N 
ATOM      9  H6  UNL     1      31.945   6.895  29.100  0.00  0.00    +0.193 HD
ATOM     10  H7  UNL     1      32.273   3.620  34.043  0.00  0.00    +0.149 HD
ENDROOT
BRANCH   8  11
ATOM     11  C6  UNL     1      31.194   3.077  32.255  0.00  0.00    +0.067 C 
ATOM     12  C7  UNL     1      31.835   1.698  32.065  0.00  0.00    +0.027 C 
ATOM     13  C8  UNL     1      29.774   2.973  32.823  0.00  0.00    +0.027 C 
ENDBRANCH   8  11
BRANCH   4  14
ATOM     14  N4  UNL     1      33.034   8.644  29.368  0.00  0.00    -0.126 NA
ATOM     15  N5  UNL     1      33.444   9.635  29.042  0.00  0.00    -0.017 NA
ENDBRANCH   4  14
BRANCH   1  16
ATOM     16  N1  UNL     1      34.656   7.869  34.092  0.00  0.00    -0.216 NA
BRANCH  16  18
ATOM     17  C1  UNL     1      34.750   8.558  36.427  0.00  0.00    +0.026 C 
ATOM     18  C2  UNL     1      34.925   7.407  35.448  0.00  0.00    +0.128 C 
ENDBRANCH  16  18
ENDBRANCH   1  16
TORSDOF 4
ENDMDL
MODEL 5
REMARK minimizedAffinity -4.1216855
REMARK minimizedRMSD -1
REMARK  Name = /home/tchapet/Post-Doc/ARTICLES-DOSSIERS-DES-ARTICLES-EN-REDACTION/NOUVELS-AXES-DE-RECHERCHE-A-REGARDER-URGEMMENT/ARTICLES-EN-REDACTIONS/ARTICLE_MVOTO/Paper2_Sensors_ActuatorsB/docking_rerun/ligands/17851.pdb
REMARK  7 active torsions:
REMARK  status: ('A' for Active; 'I' for Inactive)
REMARK    1  A    between atoms: C1_1  and  C2_2
REMARK    2  A    between atoms: C2_2  and  N1_3
REMARK    3  A    between atoms: N1_3  and  C3_4
REMARK    4  A    between atoms: N3_7  and  N4_8
REMARK    5  A    between atoms: N8_13  and  C6_14
REMARK    6  A    between atoms: C6_14  and  C7_15
REMARK    7  A    between atoms: C6_14  and  C8_16
REMARK                            x       y       z     vdW  Elec       q    Type
REMARK                         _______ _______ _______ _____ _____    ______ ____
ROOT
ATOM      1  C3  UNL     1      32.922   6.190  31.849  0.00  0.00    +0.241 A 
ATOM      2  N2  UNL     1      32.944   5.837  30.537  0.00  0.00    -0.178 NA
ATOM      3  C4  UNL     1      32.458   4.631  30.145  0.00  0.00    +0.252 A 
ATOM      4  N3  UNL     1      32.480   4.256  28.767  0.00  0.00    -0.126 N 
ATOM      5  N6  UNL     1      31.948   3.780  31.069  0.00  0.00    -0.179 NA
ATOM      6  C5  UNL     1      31.921   4.125  32.384  0.00  0.00    +0.221 A 
ATOM      7  N7  UNL     1      32.410   5.332  32.767  0.00  0.00    -0.180 NA
ATOM      8  N8  UNL     1      31.383   3.233  33.374  0.00  0.00    -0.311 N 
ATOM      9  H6  UNL     1      32.103   3.327  28.475  0.00  0.00    +0.193 HD
ATOM     10  H7  UNL     1      31.392   3.557  34.367  0.00  0.00    +0.149 HD
ENDROOT
BRANCH   8  11
ATOM     11  C6  UNL     1      30.823   1.902  33.104  0.00  0.00    +0.067 C 
ATOM     12  C7  UNL     1      31.535   0.820  33.923  0.00  0.00    +0.027 C 
ATOM     13  C8  UNL     1      29.306   1.879  33.323  0.00  0.00    +0.027 C 
ENDBRANCH   8  11
BRANCH   4  14
ATOM     14  N4  UNL     1      32.985   5.093  27.826  0.00  0.00    -0.126 NA
ATOM     15  N5  UNL     1      33.403   5.784  27.048  0.00  0.00    -0.017 NA
ENDBRANCH   4  14
BRANCH   1  16
ATOM     16  N1  UNL     1      33.431   7.455  32.273  0.00  0.00    -0.216 NA
BRANCH  16  18
ATOM     17  C1  UNL     1      34.616   7.704  34.387  0.00  0.00    +0.026 C 
ATOM     18  C2  UNL     1      34.749   7.615  32.874  0.00  0.00    +0.128 C 
ENDBRANCH  16  18
ENDBRANCH   1  16
TORSDOF 4
ENDMDL
MODEL 6
REMARK minimizedAffinity -4.12107134
REMARK minimizedRMSD -1
REMARK  Name = /home/tchapet/Post-Doc/ARTICLES-DOSSIERS-DES-ARTICLES-EN-REDACTION/NOUVELS-AXES-DE-RECHERCHE-A-REGARDER-URGEMMENT/ARTICLES-EN-REDACTIONS/ARTICLE_MVOTO/Paper2_Sensors_ActuatorsB/docking_rerun/ligands/17851.pdb
REMARK  7 active torsions:
REMARK  status: ('A' for Active; 'I' for Inactive)
REMARK    1  A    between atoms: C1_1  and  C2_2
REMARK    2  A    between atoms: C2_2  and  N1_3
REMARK    3  A    between atoms: N1_3  and  C3_4
REMARK    4  A    between atoms: N3_7  and  N4_8
REMARK    5  A    between atoms: N8_13  and  C6_14
REMARK    6  A    between atoms: C6_14  and  C7_15
REMARK    7  A    between atoms: C6_14  and  C8_16
REMARK                            x       y       z     vdW  Elec       q    Type
REMARK                         _______ _______ _______ _____ _____    ______ ____
ROOT
ATOM      1  C3  UNL     1      14.101   3.749  49.652  0.00  0.00    +0.241 A 
ATOM      2  N2  UNL     1      15.230   4.478  49.454  0.00  0.00    -0.178 NA
ATOM      3  C4  UNL     1      15.889   4.409  48.268  0.00  0.00    +0.252 A 
ATOM      4  N3  UNL     1      17.077   5.173  48.055  0.00  0.00    -0.126 N 
ATOM      5  N6  UNL     1      15.414   3.609  47.281  0.00  0.00    -0.179 NA
ATOM      6  C5  UNL     1      14.284   2.877  47.470  0.00  0.00    +0.221 A 
ATOM      7  N7  UNL     1      13.633   2.952  48.659  0.00  0.00    -0.180 NA
ATOM      8  N8  UNL     1      13.769   2.026  46.434  0.00  0.00    -0.311 N 
ATOM      9  H6  UNL     1      17.576   5.113  47.140  0.00  0.00    +0.193 HD
ATOM     10  H7  UNL     1      12.898   1.489  46.642  0.00  0.00    +0.149 HD
ENDROOT
BRANCH   8  11
ATOM     11  C6  UNL     1      14.368   1.848  45.105  0.00  0.00    +0.067 C 
ATOM     12  C7  UNL     1      14.084   0.450  44.546  0.00  0.00    +0.027 C 
ATOM     13  C8  UNL     1      13.923   2.951  44.138  0.00  0.00    +0.027 C 
ENDBRANCH   8  11
BRANCH   4  14
ATOM     14  N4  UNL     1      17.570   5.979  49.029  0.00  0.00    -0.126 NA
ATOM     15  N5  UNL     1      17.977   6.644  49.833  0.00  0.00    -0.017 NA
ENDBRANCH   4  14
BRANCH   1  16
ATOM     16  N1  UNL     1      13.400   3.814  50.895  0.00  0.00    -0.216 NA
BRANCH  16  18
ATOM     17  C1  UNL     1      11.570   5.371  50.496  0.00  0.00    +0.026 C 
ATOM     18  C2  UNL     1      11.955   3.981  50.980  0.00  0.00    +0.128 C 
ENDBRANCH  16  18
ENDBRANCH   1  16
TORSDOF 4
ENDMDL
MODEL 7
REMARK minimizedAffinity -4.10888624
REMARK minimizedRMSD -1
REMARK  Name = /home/tchapet/Post-Doc/ARTICLES-DOSSIERS-DES-ARTICLES-EN-REDACTION/NOUVELS-AXES-DE-RECHERCHE-A-REGARDER-URGEMMENT/ARTICLES-EN-REDACTIONS/ARTICLE_MVOTO/Paper2_Sensors_ActuatorsB/docking_rerun/ligands/17851.pdb
REMARK  7 active torsions:
REMARK  status: ('A' for Active; 'I' for Inactive)
REMARK    1  A    between atoms: C1_1  and  C2_2
REMARK    2  A    between atoms: C2_2  and  N1_3
REMARK    3  A    between atoms: N1_3  and  C3_4
REMARK    4  A    between atoms: N3_7  and  N4_8
REMARK    5  A    between atoms: N8_13  and  C6_14
REMARK    6  A    between atoms: C6_14  and  C7_15
REMARK    7  A    between atoms: C6_14  and  C8_16
REMARK                            x       y       z     vdW  Elec       q    Type
REMARK                         _______ _______ _______ _____ _____    ______ ____
ROOT
ATOM      1  C3  UNL     1       6.862  15.143  18.566  0.00  0.00    +0.241 A 
ATOM      2  N2  UNL     1       7.540  15.296  17.399  0.00  0.00    -0.178 NA
ATOM      3  C4  UNL     1       8.534  16.217  17.303  0.00  0.00    +0.252 A 
ATOM      4  N3  UNL     1       9.250  16.382  16.078  0.00  0.00    -0.126 N 
ATOM      5  N6  UNL     1       8.848  16.982  18.378  0.00  0.00    -0.179 NA
ATOM      6  C5  UNL     1       8.175  16.835  19.549  0.00  0.00    +0.221 A 
ATOM      7  N7  UNL     1       7.182  15.913  19.636  0.00  0.00    -0.180 NA
ATOM      8  N8  UNL     1       8.496  17.638  20.696  0.00  0.00    -0.311 N 
ATOM      9  H6  UNL     1      10.014  17.092  16.014  0.00  0.00    +0.193 HD
ATOM     10  H7  UNL     1       7.941  17.477  21.566  0.00  0.00    +0.149 HD
ENDROOT
BRANCH   8  11
ATOM     11  C6  UNL     1       9.541  18.670  20.745  0.00  0.00    +0.067 C 
ATOM     12  C7  UNL     1       8.936  20.076  20.806  0.00  0.00    +0.027 C 
ATOM     13  C8  UNL     1      10.521  18.419  21.896  0.00  0.00    +0.027 C 
ENDBRANCH   8  11
BRANCH   4  14
ATOM     14  N4  UNL     1       8.953  15.627  14.991  0.00  0.00    -0.126 NA
ATOM     15  N5  UNL     1       8.708  15.004  14.092  0.00  0.00    -0.017 NA
ENDBRANCH   4  14
BRANCH   1  16
ATOM     16  N1  UNL     1       5.814  14.178  18.679  0.00  0.00    -0.216 NA
BRANCH  16  18
ATOM     17  C1  UNL     1       4.930  13.222  20.738  0.00  0.00    +0.026 C 
ATOM     18  C2  UNL     1       5.890  13.030  19.574  0.00  0.00    +0.128 C 
ENDBRANCH  16  18
ENDBRANCH   1  16
TORSDOF 4
ENDMDL
MODEL 8
REMARK minimizedAffinity -4.10876417
REMARK minimizedRMSD -1
REMARK  Name = /home/tchapet/Post-Doc/ARTICLES-DOSSIERS-DES-ARTICLES-EN-REDACTION/NOUVELS-AXES-DE-RECHERCHE-A-REGARDER-URGEMMENT/ARTICLES-EN-REDACTIONS/ARTICLE_MVOTO/Paper2_Sensors_ActuatorsB/docking_rerun/ligands/17851.pdb
REMARK  7 active torsions:
REMARK  status: ('A' for Active; 'I' for Inactive)
REMARK    1  A    between atoms: C1_1  and  C2_2
REMARK    2  A    between atoms: C2_2  and  N1_3
REMARK    3  A    between atoms: N1_3  and  C3_4
REMARK    4  A    between atoms: N3_7  and  N4_8
REMARK    5  A    between atoms: N8_13  and  C6_14
REMARK    6  A    between atoms: C6_14  and  C7_15
REMARK    7  A    between atoms: C6_14  and  C8_16
REMARK                            x       y       z     vdW  Elec       q    Type
REMARK                         _______ _______ _______ _____ _____    ______ ____
ROOT
ATOM      1  C3  UNL     1       7.140  16.106  20.280  0.00  0.00    +0.241 A 
ATOM      2  N2  UNL     1       6.099  15.842  21.111  0.00  0.00    -0.178 NA
ATOM      3  C4  UNL     1       5.269  14.797  20.857  0.00  0.00    +0.252 A 
ATOM      4  N3  UNL     1       4.173  14.515  21.728  0.00  0.00    -0.126 N 
ATOM      5  N6  UNL     1       5.486  14.016  19.769  0.00  0.00    -0.179 NA
ATOM      6  C5  UNL     1       6.526  14.273  18.932  0.00  0.00    +0.221 A 
ATOM      7  N7  UNL     1       7.350  15.320  19.194  0.00  0.00    -0.180 NA
ATOM      8  N8  UNL     1       6.768  13.454  17.776  0.00  0.00    -0.311 N 
ATOM      9  H6  UNL     1       3.541  13.709  21.524  0.00  0.00    +0.193 HD
ATOM     10  H7  UNL     1       7.583  13.704  17.173  0.00  0.00    +0.149 HD
ENDROOT
BRANCH   8  11
ATOM     11  C6  UNL     1       5.962  12.295  17.373  0.00  0.00    +0.067 C 
ATOM     12  C7  UNL     1       4.690  12.728  16.636  0.00  0.00    +0.027 C 
ATOM     13  C8  UNL     1       6.787  11.299  16.550  0.00  0.00    +0.027 C 
ENDBRANCH   8  11
BRANCH   4  14
ATOM     14  N4  UNL     1       3.938  15.283  22.821  0.00  0.00    -0.126 NA
ATOM     15  N5  UNL     1       3.744  15.918  23.724  0.00  0.00    -0.017 NA
ENDBRANCH   4  14
BRANCH   1  16
ATOM     16  N1  UNL     1       8.019  17.202  20.537  0.00  0.00    -0.216 NA
BRANCH  16  18
ATOM     17  C1  UNL     1       9.334  16.855  22.558  0.00  0.00    +0.026 C 
ATOM     18  C2  UNL     1       8.276  17.711  21.878  0.00  0.00    +0.128 C 
ENDBRANCH  16  18
ENDBRANCH   1  16
TORSDOF 4
ENDMDL
MODEL 9
REMARK minimizedAffinity -4.07859373
REMARK minimizedRMSD -1
REMARK  Name = /home/tchapet/Post-Doc/ARTICLES-DOSSIERS-DES-ARTICLES-EN-REDACTION/NOUVELS-AXES-DE-RECHERCHE-A-REGARDER-URGEMMENT/ARTICLES-EN-REDACTIONS/ARTICLE_MVOTO/Paper2_Sensors_ActuatorsB/docking_rerun/ligands/17851.pdb
REMARK  7 active torsions:
REMARK  status: ('A' for Active; 'I' for Inactive)
REMARK    1  A    between atoms: C1_1  and  C2_2
REMARK    2  A    between atoms: C2_2  and  N1_3
REMARK    3  A    between atoms: N1_3  and  C3_4
REMARK    4  A    between atoms: N3_7  and  N4_8
REMARK    5  A    between atoms: N8_13  and  C6_14
REMARK    6  A    between atoms: C6_14  and  C7_15
REMARK    7  A    between atoms: C6_14  and  C8_16
REMARK                            x       y       z     vdW  Elec       q    Type
REMARK                         _______ _______ _______ _____ _____    ______ ____
ROOT
ATOM      1  C3  UNL     1       6.041  -5.059  35.432  0.00  0.00    +0.241 A 
ATOM      2  N2  UNL     1       5.512  -6.307  35.524  0.00  0.00    -0.178 NA
ATOM      3  C4  UNL     1       5.283  -7.036  34.401  0.00  0.00    +0.252 A 
ATOM      4  N3  UNL     1       4.726  -8.348  34.492  0.00  0.00    -0.126 N 
ATOM      5  N6  UNL     1       5.587  -6.514  33.187  0.00  0.00    -0.179 NA
ATOM      6  C5  UNL     1       6.118  -5.267  33.086  0.00  0.00    +0.221 A 
ATOM      7  N7  UNL     1       6.342  -4.544  34.213  0.00  0.00    -0.180 NA
ATOM      8  N8  UNL     1       6.445  -4.701  31.807  0.00  0.00    -0.311 N 
ATOM      9  H6  UNL     1       4.555  -8.902  33.623  0.00  0.00    +0.193 HD
ATOM     10  H7  UNL     1       6.849  -3.738  31.797  0.00  0.00    +0.149 HD
ENDROOT
BRANCH   8  11
ATOM     11  C6  UNL     1       6.256  -5.366  30.510  0.00  0.00    +0.067 C 
ATOM     12  C7  UNL     1       5.341  -4.549  29.591  0.00  0.00    +0.027 C 
ATOM     13  C8  UNL     1       7.600  -5.682  29.844  0.00  0.00    +0.027 C 
ENDBRANCH   8  11
BRANCH   4  14
ATOM     14  N4  UNL     1       4.414  -8.890  35.697  0.00  0.00    -0.126 NA
ATOM     15  N5  UNL     1       4.157  -9.337  36.692  0.00  0.00    -0.017 NA
ENDBRANCH   4  14
BRANCH   1  16
ATOM     16  N1  UNL     1       6.286  -4.283  36.606  0.00  0.00    -0.216 NA
BRANCH  16  18
ATOM     17  C1  UNL     1       4.969  -4.305  38.655  0.00  0.00    +0.026 C 
ATOM     18  C2  UNL     1       5.226  -3.596  37.334  0.00  0.00    +0.128 C 
ENDBRANCH  16  18
ENDBRANCH   1  16
TORSDOF 4
ENDMDL
