MODEL 1
REMARK minimizedAffinity -8.44968224
REMARK minimizedRMSD -1
REMARK  Name = /home/tchapet/Post-Doc/ARTICLES-DOSSIERS-DES-ARTICLES-EN-REDACTION/NOUVELS-AXES-DE-RECHERCHE-A-REGARDER-URGEMMENT/ARTICLES-EN-REDACTIONS/ARTICLE_MVOTO/Paper2_JCIM/docking_rerun/ligands/18506.pdb
REMARK  6 active torsions:
REMARK  status: ('A' for Active; 'I' for Inactive)
REMARK    1  A    between atoms: C1_1  and  C2_2
REMARK    2  A    between atoms: C2_2  and  C3_3
REMARK    3  A    between atoms: C3_3  and  C4_4
REMARK    4  A    between atoms: C4_4  and  N1_5
REMARK    5  A    between atoms: C9_12  and  N2_13
REMARK    6  A    between atoms: C12_16  and  N3_17
REMARK                            x       y       z     vdW  Elec       q    Type
REMARK                         _______ _______ _______ _____ _____    ______ ____
ROOT
ATOM      1  N1  UNL     1      -9.742  15.401  30.637  0.00  0.00    -0.275 N 
ATOM      2  C5  UNL     1      -8.818  16.297  30.226  0.00  0.00    +0.264 A 
ATOM      3  O1  UNL     1      -8.029  16.894  31.006  0.00  0.00    -0.267 OA
ATOM      4  C6  UNL     1      -8.851  16.431  28.843  0.00  0.00    +0.075 A 
ATOM      5  C7  UNL     1      -9.821  15.573  28.393  0.00  0.00    +0.075 A 
ATOM      6  C8  UNL     1     -10.345  14.947  29.516  0.00  0.00    +0.264 A 
ATOM      7  O2  UNL     1     -11.239  14.058  29.517  0.00  0.00    -0.267 OA
ATOM      8  C9  UNL     1     -10.068  15.381  27.031  0.00  0.00    +0.050 A 
ATOM      9  C10 UNL     1      -9.323  16.164  26.089  0.00  0.00    +0.056 A 
ATOM     10  C11 UNL     1      -8.302  17.065  26.563  0.00  0.00    +0.056 A 
ATOM     11  C12 UNL     1      -8.046  17.167  27.970  0.00  0.00    +0.050 A 
ATOM     12  C13 UNL     1      -7.601  17.869  25.621  0.00  0.00    +0.196 A 
ATOM     13  O3  UNL     1      -6.767  18.733  26.009  0.00  0.00    -0.287 OA
ATOM     14  C14 UNL     1      -7.842  17.742  24.242  0.00  0.00    +0.033 A 
ATOM     15  C15 UNL     1      -8.841  16.859  23.778  0.00  0.00    +0.033 A 
ATOM     16  C16 UNL     1      -9.597  16.106  24.694  0.00  0.00    +0.196 A 
ATOM     17  O4  UNL     1     -10.544  15.397  24.255  0.00  0.00    -0.287 OA
ATOM     18  C17 UNL     1      -9.084  16.761  22.389  0.00  0.00    +0.012 A 
ATOM     19  C18 UNL     1      -8.345  17.520  21.482  0.00  0.00    +0.001 A 
ATOM     20  C19 UNL     1      -7.360  18.391  21.940  0.00  0.00    +0.001 A 
ATOM     21  C20 UNL     1      -7.109  18.505  23.307  0.00  0.00    +0.012 A 
ENDROOT
BRANCH   8  22
ATOM     22  N2  UNL     1     -11.012  14.379  26.626  0.00  0.00    -0.357 N 
ATOM     23  H10 UNL     1     -11.897  14.230  27.155  0.00  0.00    +0.142 HD
ATOM     24  H11 UNL     1     -10.765  13.680  25.890  0.00  0.00    +0.142 HD
ENDBRANCH   8  22
BRANCH  11  25
ATOM     25  N3  UNL     1      -6.970  17.952  28.504  0.00  0.00    -0.357 N 
ATOM     26  H12 UNL     1      -7.083  18.485  29.393  0.00  0.00    +0.142 HD
ATOM     27  H13 UNL     1      -6.009  17.883  28.100  0.00  0.00    +0.142 HD
ENDBRANCH  11  25
BRANCH   1  28
ATOM     28  C4  UNL     1      -9.980  14.943  32.009  0.00  0.00    +0.128 C 
BRANCH  28  29
ATOM     29  C3  UNL     1     -11.098  15.752  32.680  0.00  0.00    +0.021 C 
BRANCH  29  31
ATOM     30  C1  UNL     1      -9.446  16.844  34.244  0.00  0.00    +0.004 C 
ATOM     31  C2  UNL     1     -10.770  16.095  34.139  0.00  0.00    -0.002 C 
ENDBRANCH  29  31
ENDBRANCH  28  29
ENDBRANCH   1  28
TORSDOF 5
ENDMDL
MODEL 2
REMARK minimizedAffinity -8.40194225
REMARK minimizedRMSD -1
REMARK  Name = /home/tchapet/Post-Doc/ARTICLES-DOSSIERS-DES-ARTICLES-EN-REDACTION/NOUVELS-AXES-DE-RECHERCHE-A-REGARDER-URGEMMENT/ARTICLES-EN-REDACTIONS/ARTICLE_MVOTO/Paper2_JCIM/docking_rerun/ligands/18506.pdb
REMARK  6 active torsions:
REMARK  status: ('A' for Active; 'I' for Inactive)
REMARK    1  A    between atoms: C1_1  and  C2_2
REMARK    2  A    between atoms: C2_2  and  C3_3
REMARK    3  A    between atoms: C3_3  and  C4_4
REMARK    4  A    between atoms: C4_4  and  N1_5
REMARK    5  A    between atoms: C9_12  and  N2_13
REMARK    6  A    between atoms: C12_16  and  N3_17
REMARK                            x       y       z     vdW  Elec       q    Type
REMARK                         _______ _______ _______ _____ _____    ______ ____
ROOT
ATOM      1  N1  UNL     1     -11.967  14.916  33.048  0.00  0.00    -0.275 N 
ATOM      2  C5  UNL     1     -10.967  15.784  32.776  0.00  0.00    +0.264 A 
ATOM      3  O1  UNL     1     -10.407  16.498  33.650  0.00  0.00    -0.267 OA
ATOM      4  C6  UNL     1     -10.641  15.743  31.426  0.00  0.00    +0.075 A 
ATOM      5  C7  UNL     1     -11.462  14.805  30.856  0.00  0.00    +0.075 A 
ATOM      6  C8  UNL     1     -12.260  14.307  31.877  0.00  0.00    +0.264 A 
ATOM      7  O2  UNL     1     -13.125  13.398  31.762  0.00  0.00    -0.267 OA
ATOM      8  C9  UNL     1     -11.349  14.437  29.513  0.00  0.00    +0.050 A 
ATOM      9  C10 UNL     1     -10.384  15.120  28.701  0.00  0.00    +0.056 A 
ATOM     10  C11 UNL     1      -9.519  16.106  29.302  0.00  0.00    +0.056 A 
ATOM     11  C12 UNL     1      -9.636  16.391  30.703  0.00  0.00    +0.050 A 
ATOM     12  C13 UNL     1      -8.597  16.808  28.477  0.00  0.00    +0.196 A 
ATOM     13  O3  UNL     1      -7.891  17.740  28.951  0.00  0.00    -0.287 OA
ATOM     14  C14 UNL     1      -8.473  16.502  27.110  0.00  0.00    +0.033 A 
ATOM     15  C15 UNL     1      -9.319  15.537  26.522  0.00  0.00    +0.033 A 
ATOM     16  C16 UNL     1     -10.287  14.880  27.302  0.00  0.00    +0.196 A 
ATOM     17  O4  UNL     1     -11.089  14.092  26.729  0.00  0.00    -0.287 OA
ATOM     18  C17 UNL     1      -9.194  15.259  25.142  0.00  0.00    +0.012 A 
ATOM     19  C18 UNL     1      -8.244  15.923  24.365  0.00  0.00    +0.001 A 
ATOM     20  C19 UNL     1      -7.410  16.875  24.946  0.00  0.00    +0.001 A 
ATOM     21  C20 UNL     1      -7.521  17.167  26.305  0.00  0.00    +0.012 A 
ENDROOT
BRANCH   8  22
ATOM     22  N2  UNL     1     -12.157  13.364  29.011  0.00  0.00    -0.357 N 
ATOM     23  H10 UNL     1     -13.149  13.253  29.309  0.00  0.00    +0.142 HD
ATOM     24  H11 UNL     1     -11.729  12.586  28.460  0.00  0.00    +0.142 HD
ENDBRANCH   8  22
BRANCH  11  25
ATOM     25  N3  UNL     1      -8.735  17.269  31.389  0.00  0.00    -0.357 N 
ATOM     26  H12 UNL     1      -9.073  17.906  32.143  0.00  0.00    +0.142 HD
ATOM     27  H13 UNL     1      -7.702  17.182  31.258  0.00  0.00    +0.142 HD
ENDBRANCH  11  25
BRANCH   1  28
ATOM     28  C4  UNL     1     -12.553  14.626  34.359  0.00  0.00    +0.128 C 
BRANCH  28  29
ATOM     29  C3  UNL     1     -11.741  13.563  35.110  0.00  0.00    +0.021 C 
BRANCH  29  31
ATOM     30  C1  UNL     1     -12.220  11.558  36.566  0.00  0.00    +0.004 C 
ATOM     31  C2  UNL     1     -12.495  12.231  35.225  0.00  0.00    -0.002 C 
ENDBRANCH  29  31
ENDBRANCH  28  29
ENDBRANCH   1  28
TORSDOF 5
ENDMDL
MODEL 3
REMARK minimizedAffinity -8.3835001
REMARK minimizedRMSD -1
REMARK  Name = /home/tchapet/Post-Doc/ARTICLES-DOSSIERS-DES-ARTICLES-EN-REDACTION/NOUVELS-AXES-DE-RECHERCHE-A-REGARDER-URGEMMENT/ARTICLES-EN-REDACTIONS/ARTICLE_MVOTO/Paper2_JCIM/docking_rerun/ligands/18506.pdb
REMARK  6 active torsions:
REMARK  status: ('A' for Active; 'I' for Inactive)
REMARK    1  A    between atoms: C1_1  and  C2_2
REMARK    2  A    between atoms: C2_2  and  C3_3
REMARK    3  A    between atoms: C3_3  and  C4_4
REMARK    4  A    between atoms: C4_4  and  N1_5
REMARK    5  A    between atoms: C9_12  and  N2_13
REMARK    6  A    between atoms: C12_16  and  N3_17
REMARK                            x       y       z     vdW  Elec       q    Type
REMARK                         _______ _______ _______ _____ _____    ______ ____
ROOT
ATOM      1  N1  UNL     1     -11.752  14.905  33.027  0.00  0.00    -0.275 N 
ATOM      2  C5  UNL     1     -12.154  14.318  31.878  0.00  0.00    +0.264 A 
ATOM      3  O1  UNL     1     -13.045  13.429  31.824  0.00  0.00    -0.267 OA
ATOM      4  C6  UNL     1     -11.473  14.856  30.793  0.00  0.00    +0.075 A 
ATOM      5  C7  UNL     1     -10.636  15.817  31.296  0.00  0.00    +0.075 A 
ATOM      6  C8  UNL     1     -10.834  15.831  32.670  0.00  0.00    +0.264 A 
ATOM      7  O2  UNL     1     -10.271  16.606  33.490  0.00  0.00    -0.267 OA
ATOM      8  C9  UNL     1      -9.856  16.630  30.469  0.00  0.00    +0.050 A 
ATOM      9  C10 UNL     1      -9.892  16.393  29.056  0.00  0.00    +0.056 A 
ATOM     10  C11 UNL     1     -10.775  15.382  28.526  0.00  0.00    +0.056 A 
ATOM     11  C12 UNL     1     -11.603  14.627  29.420  0.00  0.00    +0.050 A 
ATOM     12  C13 UNL     1     -10.768  15.126  27.127  0.00  0.00    +0.196 A 
ATOM     13  O3  UNL     1     -11.459  14.188  26.642  0.00  0.00    -0.287 OA
ATOM     14  C14 UNL     1      -9.971  15.891  26.256  0.00  0.00    +0.033 A 
ATOM     15  C15 UNL     1      -9.108  16.880  26.774  0.00  0.00    +0.033 A 
ATOM     16  C16 UNL     1      -9.043  17.103  28.162  0.00  0.00    +0.196 A 
ATOM     17  O4  UNL     1      -8.195  17.927  28.601  0.00  0.00    -0.287 OA
ATOM     18  C17 UNL     1      -8.297  17.623  25.886  0.00  0.00    +0.012 A 
ATOM     19  C18 UNL     1      -8.350  17.390  24.512  0.00  0.00    +0.001 A 
ATOM     20  C19 UNL     1      -9.201  16.414  24.001  0.00  0.00    +0.001 A 
ATOM     21  C20 UNL     1     -10.005  15.667  24.862  0.00  0.00    +0.012 A 
ENDROOT
BRANCH   8  22
ATOM     22  N2  UNL     1      -9.094  17.695  31.053  0.00  0.00    -0.357 N 
ATOM     23  H10 UNL     1      -8.603  17.569  31.964  0.00  0.00    +0.142 HD
ATOM     24  H11 UNL     1      -9.140  18.662  30.659  0.00  0.00    +0.142 HD
ENDBRANCH   8  22
BRANCH  11  25
ATOM     25  N3  UNL     1     -12.587  13.692  28.957  0.00  0.00    -0.357 N 
ATOM     26  H12 UNL     1     -12.764  12.800  29.467  0.00  0.00    +0.142 HD
ATOM     27  H13 UNL     1     -13.251  13.952  28.192  0.00  0.00    +0.142 HD
ENDBRANCH  11  25
BRANCH   1  28
ATOM     28  C4  UNL     1     -12.269  14.656  34.375  0.00  0.00    +0.128 C 
BRANCH  28  29
ATOM     29  C3  UNL     1     -11.396  13.644  35.129  0.00  0.00    +0.021 C 
BRANCH  29  31
ATOM     30  C1  UNL     1     -12.032  11.935  36.874  0.00  0.00    +0.004 C 
ATOM     31  C2  UNL     1     -12.138  12.329  35.404  0.00  0.00    -0.002 C 
ENDBRANCH  29  31
ENDBRANCH  28  29
ENDBRANCH   1  28
TORSDOF 5
ENDMDL
MODEL 4
REMARK minimizedAffinity -8.34031963
REMARK minimizedRMSD -1
REMARK  Name = /home/tchapet/Post-Doc/ARTICLES-DOSSIERS-DES-ARTICLES-EN-REDACTION/NOUVELS-AXES-DE-RECHERCHE-A-REGARDER-URGEMMENT/ARTICLES-EN-REDACTIONS/ARTICLE_MVOTO/Paper2_JCIM/docking_rerun/ligands/18506.pdb
REMARK  6 active torsions:
REMARK  status: ('A' for Active; 'I' for Inactive)
REMARK    1  A    between atoms: C1_1  and  C2_2
REMARK    2  A    between atoms: C2_2  and  C3_3
REMARK    3  A    between atoms: C3_3  and  C4_4
REMARK    4  A    between atoms: C4_4  and  N1_5
REMARK    5  A    between atoms: C9_12  and  N2_13
REMARK    6  A    between atoms: C12_16  and  N3_17
REMARK                            x       y       z     vdW  Elec       q    Type
REMARK                         _______ _______ _______ _____ _____    ______ ____
ROOT
ATOM      1  N1  UNL     1      -9.001  17.215  26.162  0.00  0.00    -0.275 N 
ATOM      2  C5  UNL     1      -8.760  17.678  27.409  0.00  0.00    +0.264 A 
ATOM      3  O1  UNL     1      -8.031  18.676  27.654  0.00  0.00    -0.267 OA
ATOM      4  C6  UNL     1      -9.450  16.923  28.350  0.00  0.00    +0.075 A 
ATOM      5  C7  UNL     1     -10.149  15.974  27.650  0.00  0.00    +0.075 A 
ATOM      6  C8  UNL     1      -9.861  16.182  26.308  0.00  0.00    +0.264 A 
ATOM      7  O2  UNL     1     -10.340  15.533  25.340  0.00  0.00    -0.267 OA
ATOM      8  C9  UNL     1     -11.029  15.087  28.276  0.00  0.00    +0.050 A 
ATOM      9  C10 UNL     1     -11.142  15.140  29.705  0.00  0.00    +0.056 A 
ATOM     10  C11 UNL     1     -10.407  16.140  30.441  0.00  0.00    +0.056 A 
ATOM     11  C12 UNL     1      -9.573  17.068  29.734  0.00  0.00    +0.050 A 
ATOM     12  C13 UNL     1     -10.494  16.152  31.860  0.00  0.00    +0.196 A 
ATOM     13  O3  UNL     1      -9.794  16.953  32.539  0.00  0.00    -0.287 OA
ATOM     14  C14 UNL     1     -11.335  15.254  32.541  0.00  0.00    +0.033 A 
ATOM     15  C15 UNL     1     -12.055  14.276  31.821  0.00  0.00    +0.033 A 
ATOM     16  C16 UNL     1     -11.930  14.198  30.422  0.00  0.00    +0.196 A 
ATOM     17  O4  UNL     1     -12.512  13.255  29.818  0.00  0.00    -0.287 OA
ATOM     18  C17 UNL     1     -12.878  13.368  32.524  0.00  0.00    +0.012 A 
ATOM     19  C18 UNL     1     -12.988  13.437  33.913  0.00  0.00    +0.001 A 
ATOM     20  C19 UNL     1     -12.278  14.401  34.623  0.00  0.00    +0.001 A 
ATOM     21  C20 UNL     1     -11.456  15.303  33.948  0.00  0.00    +0.012 A 
ENDROOT
BRANCH   8  22
ATOM     22  N2  UNL     1     -11.819  14.201  27.472  0.00  0.00    -0.357 N 
ATOM     23  H10 UNL     1     -11.419  13.740  26.628  0.00  0.00    +0.142 HD
ATOM     24  H11 UNL     1     -12.849  14.119  27.624  0.00  0.00    +0.142 HD
ENDBRANCH   8  22
BRANCH  11  25
ATOM     25  N3  UNL     1      -8.909  18.159  30.385  0.00  0.00    -0.357 N 
ATOM     26  H12 UNL     1      -7.951  18.454  30.098  0.00  0.00    +0.142 HD
ATOM     27  H13 UNL     1      -9.425  18.776  31.052  0.00  0.00    +0.142 HD
ENDBRANCH  11  25
BRANCH   1  28
ATOM     28  C4  UNL     1      -8.506  17.774  24.901  0.00  0.00    +0.128 C 
BRANCH  28  29
ATOM     29  C3  UNL     1      -7.388  16.906  24.308  0.00  0.00    +0.021 C 
BRANCH  29  31
ATOM     30  C1  UNL     1      -8.958  16.955  22.332  0.00  0.00    +0.004 C 
ATOM     31  C2  UNL     1      -7.826  16.197  23.019  0.00  0.00    -0.002 C 
ENDBRANCH  29  31
ENDBRANCH  28  29
ENDBRANCH   1  28
TORSDOF 5
ENDMDL
MODEL 5
REMARK minimizedAffinity -8.24138451
REMARK minimizedRMSD -1
REMARK  Name = /home/tchapet/Post-Doc/ARTICLES-DOSSIERS-DES-ARTICLES-EN-REDACTION/NOUVELS-AXES-DE-RECHERCHE-A-REGARDER-URGEMMENT/ARTICLES-EN-REDACTIONS/ARTICLE_MVOTO/Paper2_JCIM/docking_rerun/ligands/18506.pdb
REMARK  6 active torsions:
REMARK  status: ('A' for Active; 'I' for Inactive)
REMARK    1  A    between atoms: C1_1  and  C2_2
REMARK    2  A    between atoms: C2_2  and  C3_3
REMARK    3  A    between atoms: C3_3  and  C4_4
REMARK    4  A    between atoms: C4_4  and  N1_5
REMARK    5  A    between atoms: C9_12  and  N2_13
REMARK    6  A    between atoms: C12_16  and  N3_17
REMARK                            x       y       z     vdW  Elec       q    Type
REMARK                         _______ _______ _______ _____ _____    ______ ____
ROOT
ATOM      1  N1  UNL     1      -9.731  15.175  30.698  0.00  0.00    -0.275 N 
ATOM      2  C5  UNL     1     -10.360  14.754  29.578  0.00  0.00    +0.264 A 
ATOM      3  O1  UNL     1     -11.332  13.952  29.584  0.00  0.00    -0.267 OA
ATOM      4  C6  UNL     1      -9.805  15.352  28.454  0.00  0.00    +0.075 A 
ATOM      5  C7  UNL     1      -8.810  16.180  28.905  0.00  0.00    +0.075 A 
ATOM      6  C8  UNL     1      -8.793  16.057  30.288  0.00  0.00    +0.264 A 
ATOM      7  O2  UNL     1      -8.037  16.687  31.076  0.00  0.00    -0.267 OA
ATOM      8  C9  UNL     1      -8.090  17.014  28.045  0.00  0.00    +0.050 A 
ATOM      9  C10 UNL     1      -8.366  16.940  26.640  0.00  0.00    +0.056 A 
ATOM     10  C11 UNL     1      -9.415  16.070  26.166  0.00  0.00    +0.056 A 
ATOM     11  C12 UNL     1     -10.166  15.290  27.105  0.00  0.00    +0.050 A 
ATOM     12  C13 UNL     1      -9.648  15.973  24.766  0.00  0.00    +0.196 A 
ATOM     13  O3  UNL     1     -10.494  15.154  24.311  0.00  0.00    -0.287 OA
ATOM     14  C14 UNL     1      -8.923  16.762  23.856  0.00  0.00    +0.033 A 
ATOM     15  C15 UNL     1      -7.897  17.614  24.320  0.00  0.00    +0.033 A 
ATOM     16  C16 UNL     1      -7.599  17.674  25.694  0.00  0.00    +0.196 A 
ATOM     17  O4  UNL     1      -6.617  18.373  26.067  0.00  0.00    -0.287 OA
ATOM     18  C17 UNL     1      -7.164  18.383  23.388  0.00  0.00    +0.012 A 
ATOM     19  C18 UNL     1      -7.449  18.310  22.025  0.00  0.00    +0.001 A 
ATOM     20  C19 UNL     1      -8.461  17.470  21.567  0.00  0.00    +0.001 A 
ATOM     21  C20 UNL     1      -9.192  16.699  22.471  0.00  0.00    +0.012 A 
ENDROOT
BRANCH   8  22
ATOM     22  N2  UNL     1      -7.147  17.942  28.598  0.00  0.00    -0.357 N 
ATOM     23  H10 UNL     1      -6.537  17.676  29.400  0.00  0.00    +0.142 HD
ATOM     24  H11 UNL     1      -7.158  18.947  28.313  0.00  0.00    +0.142 HD
ENDBRANCH   8  22
BRANCH  11  25
ATOM     25  N3  UNL     1     -11.297  14.496  26.719  0.00  0.00    -0.357 N 
ATOM     26  H12 UNL     1     -11.480  13.570  27.162  0.00  0.00    +0.142 HD
ATOM     27  H13 UNL     1     -12.041  14.893  26.102  0.00  0.00    +0.142 HD
ENDBRANCH  11  25
BRANCH   1  28
ATOM     28  C4  UNL     1     -10.057  14.819  32.081  0.00  0.00    +0.128 C 
BRANCH  28  29
ATOM     29  C3  UNL     1     -11.095  15.781  32.674  0.00  0.00    +0.021 C 
BRANCH  29  31
ATOM     30  C1  UNL     1      -9.506  16.897  34.287  0.00  0.00    +0.004 C 
ATOM     31  C2  UNL     1     -10.806  16.111  34.145  0.00  0.00    -0.002 C 
ENDBRANCH  29  31
ENDBRANCH  28  29
ENDBRANCH   1  28
TORSDOF 5
ENDMDL
MODEL 6
REMARK minimizedAffinity -8.1836834
REMARK minimizedRMSD -1
REMARK  Name = /home/tchapet/Post-Doc/ARTICLES-DOSSIERS-DES-ARTICLES-EN-REDACTION/NOUVELS-AXES-DE-RECHERCHE-A-REGARDER-URGEMMENT/ARTICLES-EN-REDACTIONS/ARTICLE_MVOTO/Paper2_JCIM/docking_rerun/ligands/18506.pdb
REMARK  6 active torsions:
REMARK  status: ('A' for Active; 'I' for Inactive)
REMARK    1  A    between atoms: C1_1  and  C2_2
REMARK    2  A    between atoms: C2_2  and  C3_3
REMARK    3  A    between atoms: C3_3  and  C4_4
REMARK    4  A    between atoms: C4_4  and  N1_5
REMARK    5  A    between atoms: C9_12  and  N2_13
REMARK    6  A    between atoms: C12_16  and  N3_17
REMARK                            x       y       z     vdW  Elec       q    Type
REMARK                         _______ _______ _______ _____ _____    ______ ____
ROOT
ATOM      1  N1  UNL     1     -13.327  12.342  32.773  0.00  0.00    -0.275 N 
ATOM      2  C5  UNL     1     -13.164  11.971  31.484  0.00  0.00    +0.264 A 
ATOM      3  O1  UNL     1     -13.495  10.841  31.036  0.00  0.00    -0.267 OA
ATOM      4  C6  UNL     1     -12.619  13.012  30.743  0.00  0.00    +0.075 A 
ATOM      5  C7  UNL     1     -12.457  14.062  31.610  0.00  0.00    +0.075 A 
ATOM      6  C8  UNL     1     -12.908  13.625  32.847  0.00  0.00    +0.264 A 
ATOM      7  O2  UNL     1     -12.957  14.313  33.902  0.00  0.00    -0.267 OA
ATOM      8  C9  UNL     1     -12.009  15.315  31.182  0.00  0.00    +0.050 A 
ATOM      9  C10 UNL     1     -11.646  15.472  29.804  0.00  0.00    +0.056 A 
ATOM     10  C11 UNL     1     -11.818  14.367  28.893  0.00  0.00    +0.056 A 
ATOM     11  C12 UNL     1     -12.348  13.126  29.377  0.00  0.00    +0.050 A 
ATOM     12  C13 UNL     1     -11.411  14.522  27.538  0.00  0.00    +0.196 A 
ATOM     13  O3  UNL     1     -11.462  13.549  26.737  0.00  0.00    -0.287 OA
ATOM     14  C14 UNL     1     -10.917  15.752  27.068  0.00  0.00    +0.033 A 
ATOM     15  C15 UNL     1     -10.749  16.833  27.960  0.00  0.00    +0.033 A 
ATOM     16  C16 UNL     1     -11.077  16.683  29.320  0.00  0.00    +0.196 A 
ATOM     17  O4  UNL     1     -10.828  17.636  30.109  0.00  0.00    -0.287 OA
ATOM     18  C17 UNL     1     -10.230  18.054  27.474  0.00  0.00    +0.012 A 
ATOM     19  C18 UNL     1      -9.890  18.198  26.129  0.00  0.00    +0.001 A 
ATOM     20  C19 UNL     1     -10.056  17.131  25.250  0.00  0.00    +0.001 A 
ATOM     21  C20 UNL     1     -10.562  15.917  25.711  0.00  0.00    +0.012 A 
ENDROOT
BRANCH   8  22
ATOM     22  N2  UNL     1     -11.978  16.403  32.117  0.00  0.00    -0.357 N 
ATOM     23  H10 UNL     1     -11.679  16.255  33.104  0.00  0.00    +0.142 HD
ATOM     24  H11 UNL     1     -12.398  17.328  31.873  0.00  0.00    +0.142 HD
ENDBRANCH   8  22
BRANCH  11  25
ATOM     25  N3  UNL     1     -12.656  12.027  28.508  0.00  0.00    -0.357 N 
ATOM     26  H12 UNL     1     -12.486  11.043  28.806  0.00  0.00    +0.142 HD
ATOM     27  H13 UNL     1     -13.195  12.180  27.627  0.00  0.00    +0.142 HD
ENDBRANCH  11  25
BRANCH   1  28
ATOM     28  C4  UNL     1     -13.921  11.548  33.852  0.00  0.00    +0.128 C 
BRANCH  28  29
ATOM     29  C3  UNL     1     -12.877  10.642  34.518  0.00  0.00    +0.021 C 
BRANCH  29  31
ATOM     30  C1  UNL     1     -11.959  12.083  36.376  0.00  0.00    +0.004 C 
ATOM     31  C2  UNL     1     -12.803  10.859  36.036  0.00  0.00    -0.002 C 
ENDBRANCH  29  31
ENDBRANCH  28  29
ENDBRANCH   1  28
TORSDOF 5
ENDMDL
MODEL 7
REMARK minimizedAffinity -8.14558887
REMARK minimizedRMSD -1
REMARK  Name = /home/tchapet/Post-Doc/ARTICLES-DOSSIERS-DES-ARTICLES-EN-REDACTION/NOUVELS-AXES-DE-RECHERCHE-A-REGARDER-URGEMMENT/ARTICLES-EN-REDACTIONS/ARTICLE_MVOTO/Paper2_JCIM/docking_rerun/ligands/18506.pdb
REMARK  6 active torsions:
REMARK  status: ('A' for Active; 'I' for Inactive)
REMARK    1  A    between atoms: C1_1  and  C2_2
REMARK    2  A    between atoms: C2_2  and  C3_3
REMARK    3  A    between atoms: C3_3  and  C4_4
REMARK    4  A    between atoms: C4_4  and  N1_5
REMARK    5  A    between atoms: C9_12  and  N2_13
REMARK    6  A    between atoms: C12_16  and  N3_17
REMARK                            x       y       z     vdW  Elec       q    Type
REMARK                         _______ _______ _______ _____ _____    ______ ____
ROOT
ATOM      1  N1  UNL     1     -10.230  16.519  29.934  0.00  0.00    -0.275 N 
ATOM      2  C5  UNL     1     -10.426  15.832  28.788  0.00  0.00    +0.264 A 
ATOM      3  O1  UNL     1     -11.270  14.904  28.666  0.00  0.00    -0.267 OA
ATOM      4  C6  UNL     1      -9.599  16.316  27.782  0.00  0.00    +0.075 A 
ATOM      5  C7  UNL     1      -8.881  17.347  28.332  0.00  0.00    +0.075 A 
ATOM      6  C8  UNL     1      -9.296  17.455  29.653  0.00  0.00    +0.264 A 
ATOM      7  O2  UNL     1      -8.895  18.311  30.485  0.00  0.00    -0.267 OA
ATOM      8  C9  UNL     1      -8.004  18.128  27.575  0.00  0.00    +0.050 A 
ATOM      9  C10 UNL     1      -7.808  17.786  26.196  0.00  0.00    +0.056 A 
ATOM     10  C11 UNL     1      -8.564  16.701  25.618  0.00  0.00    +0.056 A 
ATOM     11  C12 UNL     1      -9.501  15.981  26.429  0.00  0.00    +0.050 A 
ATOM     12  C13 UNL     1      -8.327  16.343  24.262  0.00  0.00    +0.196 A 
ATOM     13  O3  UNL     1      -8.904  15.343  23.752  0.00  0.00    -0.287 OA
ATOM     14  C14 UNL     1      -7.425  17.074  23.468  0.00  0.00    +0.033 A 
ATOM     15  C15 UNL     1      -6.686  18.135  24.034  0.00  0.00    +0.033 A 
ATOM     16  C16 UNL     1      -6.850  18.463  25.393  0.00  0.00    +0.196 A 
ATOM     17  O4  UNL     1      -6.108  19.353  25.891  0.00  0.00    -0.287 OA
ATOM     18  C17 UNL     1      -5.767  18.844  23.227  0.00  0.00    +0.012 A 
ATOM     19  C18 UNL     1      -5.593  18.508  21.884  0.00  0.00    +0.001 A 
ATOM     20  C19 UNL     1      -6.323  17.461  21.327  0.00  0.00    +0.001 A 
ATOM     21  C20 UNL     1      -7.230  16.746  22.108  0.00  0.00    +0.012 A 
ENDROOT
BRANCH   8  22
ATOM     22  N2  UNL     1      -7.378  19.266  28.183  0.00  0.00    -0.357 N 
ATOM     23  H10 UNL     1      -7.035  19.229  29.167  0.00  0.00    +0.142 HD
ATOM     24  H11 UNL     1      -7.390  20.197  27.711  0.00  0.00    +0.142 HD
ENDBRANCH   8  22
BRANCH  11  25
ATOM     25  N3  UNL     1     -10.370  14.973  25.894  0.00  0.00    -0.357 N 
ATOM     26  H12 UNL     1     -10.599  14.114  26.440  0.00  0.00    +0.142 HD
ATOM     27  H13 UNL     1     -10.911  15.147  25.017  0.00  0.00    +0.142 HD
ENDBRANCH  11  25
BRANCH   1  28
ATOM     28  C4  UNL     1     -10.948  16.349  31.201  0.00  0.00    +0.128 C 
BRANCH  28  29
ATOM     29  C3  UNL     1     -10.321  15.236  32.051  0.00  0.00    +0.021 C 
BRANCH  29  31
ATOM     30  C1  UNL     1      -9.486  16.818  33.831  0.00  0.00    +0.004 C 
ATOM     31  C2  UNL     1     -10.326  15.577  33.547  0.00  0.00    -0.002 C 
ENDBRANCH  29  31
ENDBRANCH  28  29
ENDBRANCH   1  28
TORSDOF 5
ENDMDL
MODEL 8
REMARK minimizedAffinity -8.14020252
REMARK minimizedRMSD -1
REMARK  Name = /home/tchapet/Post-Doc/ARTICLES-DOSSIERS-DES-ARTICLES-EN-REDACTION/NOUVELS-AXES-DE-RECHERCHE-A-REGARDER-URGEMMENT/ARTICLES-EN-REDACTIONS/ARTICLE_MVOTO/Paper2_JCIM/docking_rerun/ligands/18506.pdb
REMARK  6 active torsions:
REMARK  status: ('A' for Active; 'I' for Inactive)
REMARK    1  A    between atoms: C1_1  and  C2_2
REMARK    2  A    between atoms: C2_2  and  C3_3
REMARK    3  A    between atoms: C3_3  and  C4_4
REMARK    4  A    between atoms: C4_4  and  N1_5
REMARK    5  A    between atoms: C9_12  and  N2_13
REMARK    6  A    between atoms: C12_16  and  N3_17
REMARK                            x       y       z     vdW  Elec       q    Type
REMARK                         _______ _______ _______ _____ _____    ______ ____
ROOT
ATOM      1  N1  UNL     1     -10.425  17.128  28.728  0.00  0.00    -0.275 N 
ATOM      2  C5  UNL     1      -9.159  17.600  28.680  0.00  0.00    +0.264 A 
ATOM      3  O1  UNL     1      -8.509  17.956  29.699  0.00  0.00    -0.267 OA
ATOM      4  C6  UNL     1      -8.689  17.599  27.373  0.00  0.00    +0.075 A 
ATOM      5  C7  UNL     1      -9.700  17.095  26.596  0.00  0.00    +0.075 A 
ATOM      6  C8  UNL     1     -10.750  16.807  27.456  0.00  0.00    +0.264 A 
ATOM      7  O2  UNL     1     -11.853  16.292  27.128  0.00  0.00    -0.267 OA
ATOM      8  C9  UNL     1      -9.541  16.869  25.226  0.00  0.00    +0.050 A 
ATOM      9  C10 UNL     1      -8.299  17.245  24.616  0.00  0.00    +0.056 A 
ATOM     10  C11 UNL     1      -7.235  17.774  25.435  0.00  0.00    +0.056 A 
ATOM     11  C12 UNL     1      -7.434  17.918  26.847  0.00  0.00    +0.050 A 
ATOM     12  C13 UNL     1      -6.025  18.185  24.810  0.00  0.00    +0.196 A 
ATOM     13  O3  UNL     1      -5.110  18.736  25.482  0.00  0.00    -0.287 OA
ATOM     14  C14 UNL     1      -5.831  18.014  23.427  0.00  0.00    +0.033 A 
ATOM     15  C15 UNL     1      -6.872  17.496  22.627  0.00  0.00    +0.033 A 
ATOM     16  C16 UNL     1      -8.104  17.150  23.210  0.00  0.00    +0.196 A 
ATOM     17  O4  UNL     1      -9.045  16.778  22.455  0.00  0.00    -0.287 OA
ATOM     18  C17 UNL     1      -6.666  17.354  21.236  0.00  0.00    +0.012 A 
ATOM     19  C18 UNL     1      -5.450  17.713  20.655  0.00  0.00    +0.001 A 
ATOM     20  C19 UNL     1      -4.424  18.224  21.446  0.00  0.00    +0.001 A 
ATOM     21  C20 UNL     1      -4.609  18.377  22.819  0.00  0.00    +0.012 A 
ENDROOT
BRANCH   8  22
ATOM     22  N2  UNL     1     -10.595  16.228  24.496  0.00  0.00    -0.357 N 
ATOM     23  H10 UNL     1     -11.595  16.450  24.689  0.00  0.00    +0.142 HD
ATOM     24  H11 UNL     1     -10.393  15.417  23.869  0.00  0.00    +0.142 HD
ENDBRANCH   8  22
BRANCH  11  25
ATOM     25  N3  UNL     1      -6.385  18.324  27.737  0.00  0.00    -0.357 N 
ATOM     26  H12 UNL     1      -6.579  18.948  28.549  0.00  0.00    +0.142 HD
ATOM     27  H13 UNL     1      -5.439  17.884  27.681  0.00  0.00    +0.142 HD
ENDBRANCH  11  25
BRANCH   1  28
ATOM     28  C4  UNL     1     -11.247  16.921  29.923  0.00  0.00    +0.128 C 
BRANCH  28  29
ATOM     29  C3  UNL     1     -11.035  15.518  30.509  0.00  0.00    +0.021 C 
BRANCH  29  31
ATOM     30  C1  UNL     1      -8.782  14.954  31.497  0.00  0.00    +0.004 C 
ATOM     31  C2  UNL     1     -10.162  15.542  31.771  0.00  0.00    -0.002 C 
ENDBRANCH  29  31
ENDBRANCH  28  29
ENDBRANCH   1  28
TORSDOF 5
ENDMDL
MODEL 9
REMARK minimizedAffinity -8.12826252
REMARK minimizedRMSD -1
REMARK  Name = /home/tchapet/Post-Doc/ARTICLES-DOSSIERS-DES-ARTICLES-EN-REDACTION/NOUVELS-AXES-DE-RECHERCHE-A-REGARDER-URGEMMENT/ARTICLES-EN-REDACTIONS/ARTICLE_MVOTO/Paper2_JCIM/docking_rerun/ligands/18506.pdb
REMARK  6 active torsions:
REMARK  status: ('A' for Active; 'I' for Inactive)
REMARK    1  A    between atoms: C1_1  and  C2_2
REMARK    2  A    between atoms: C2_2  and  C3_3
REMARK    3  A    between atoms: C3_3  and  C4_4
REMARK    4  A    between atoms: C4_4  and  N1_5
REMARK    5  A    between atoms: C9_12  and  N2_13
REMARK    6  A    between atoms: C12_16  and  N3_17
REMARK                            x       y       z     vdW  Elec       q    Type
REMARK                         _______ _______ _______ _____ _____    ______ ____
ROOT
ATOM      1  N1  UNL     1     -10.318  17.080  28.673  0.00  0.00    -0.275 N 
ATOM      2  C5  UNL     1     -10.641  16.717  27.412  0.00  0.00    +0.264 A 
ATOM      3  O1  UNL     1     -11.761  16.239  27.089  0.00  0.00    -0.267 OA
ATOM      4  C6  UNL     1      -9.586  16.975  26.546  0.00  0.00    +0.075 A 
ATOM      5  C7  UNL     1      -8.588  17.531  27.305  0.00  0.00    +0.075 A 
ATOM      6  C8  UNL     1      -9.069  17.591  28.605  0.00  0.00    +0.264 A 
ATOM      7  O2  UNL     1      -8.458  18.072  29.597  0.00  0.00    -0.267 OA
ATOM      8  C9  UNL     1      -7.399  17.999  26.739  0.00  0.00    +0.050 A 
ATOM      9  C10 UNL     1      -7.203  17.825  25.330  0.00  0.00    +0.056 A 
ATOM     10  C11 UNL     1      -8.254  17.242  24.532  0.00  0.00    +0.056 A 
ATOM     11  C12 UNL     1      -9.480  16.844  25.159  0.00  0.00    +0.050 A 
ATOM     12  C13 UNL     1      -8.029  17.033  23.143  0.00  0.00    +0.196 A 
ATOM     13  O3  UNL     1      -8.890  16.443  22.434  0.00  0.00    -0.287 OA
ATOM     14  C14 UNL     1      -6.833  17.452  22.534  0.00  0.00    +0.033 A 
ATOM     15  C15 UNL     1      -5.805  18.023  23.314  0.00  0.00    +0.033 A 
ATOM     16  C16 UNL     1      -5.975  18.174  24.702  0.00  0.00    +0.196 A 
ATOM     17  O4  UNL     1      -5.003  18.601  25.385  0.00  0.00    -0.287 OA
ATOM     18  C17 UNL     1      -4.601  18.417  22.688  0.00  0.00    +0.012 A 
ATOM     19  C18 UNL     1      -4.426  18.252  21.314  0.00  0.00    +0.001 A 
ATOM     20  C19 UNL     1      -5.441  17.688  20.544  0.00  0.00    +0.001 A 
ATOM     21  C20 UNL     1      -6.634  17.288  21.145  0.00  0.00    +0.012 A 
ENDROOT
BRANCH   8  22
ATOM     22  N2  UNL     1      -6.449  18.679  27.572  0.00  0.00    -0.357 N 
ATOM     23  H10 UNL     1      -6.257  18.355  28.543  0.00  0.00    +0.142 HD
ATOM     24  H11 UNL     1      -6.045  19.597  27.280  0.00  0.00    +0.142 HD
ENDBRANCH   8  22
BRANCH  11  25
ATOM     25  N3  UNL     1     -10.609  16.368  24.414  0.00  0.00    -0.357 N 
ATOM     26  H12 UNL     1     -11.213  15.601  24.781  0.00  0.00    +0.142 HD
ATOM     27  H13 UNL     1     -10.941  16.878  23.564  0.00  0.00    +0.142 HD
ENDBRANCH  11  25
BRANCH   1  28
ATOM     28  C4  UNL     1     -11.179  17.019  29.858  0.00  0.00    +0.128 C 
BRANCH  28  29
ATOM     29  C3  UNL     1     -11.054  15.665  30.569  0.00  0.00    +0.021 C 
BRANCH  29  31
ATOM     30  C1  UNL     1      -8.784  15.065  31.496  0.00  0.00    +0.004 C 
ATOM     31  C2  UNL     1     -10.124  15.734  31.788  0.00  0.00    -0.002 C 
ENDBRANCH  29  31
ENDBRANCH  28  29
ENDBRANCH   1  28
TORSDOF 5
ENDMDL
