MODEL 1
REMARK minimizedAffinity -6.64643478
REMARK minimizedRMSD -1
REMARK  Name = /home/tchapet/Post-Doc/ARTICLES-DOSSIERS-DES-ARTICLES-EN-REDACTION/NOUVELS-AXES-DE-RECHERCHE-A-REGARDER-URGEMMENT/ARTICLES-EN-REDACTIONS/ARTICLE_MVOTO/Paper2_JCIM/docking_rerun/ligands/18506.pdb
REMARK  6 active torsions:
REMARK  status: ('A' for Active; 'I' for Inactive)
REMARK    1  A    between atoms: C1_1  and  C2_2
REMARK    2  A    between atoms: C2_2  and  C3_3
REMARK    3  A    between atoms: C3_3  and  C4_4
REMARK    4  A    between atoms: C4_4  and  N1_5
REMARK    5  A    between atoms: C9_12  and  N2_13
REMARK    6  A    between atoms: C12_16  and  N3_17
REMARK                            x       y       z     vdW  Elec       q    Type
REMARK                         _______ _______ _______ _____ _____    ______ ____
ROOT
ATOM      1  N1  UNL     1     -19.111 -30.861  11.297  0.00  0.00    -0.275 N 
ATOM      2  C5  UNL     1     -18.367 -31.388  10.300  0.00  0.00    +0.264 A 
ATOM      3  O1  UNL     1     -17.256 -31.954  10.483  0.00  0.00    -0.267 OA
ATOM      4  C6  UNL     1     -19.015 -31.243   9.080  0.00  0.00    +0.075 A 
ATOM      5  C7  UNL     1     -20.205 -30.616   9.344  0.00  0.00    +0.075 A 
ATOM      6  C8  UNL     1     -20.241 -30.402  10.715  0.00  0.00    +0.264 A 
ATOM      7  O2  UNL     1     -21.192 -29.879  11.356  0.00  0.00    -0.267 OA
ATOM      8  C9  UNL     1     -21.160 -30.386   8.350  0.00  0.00    +0.050 A 
ATOM      9  C10 UNL     1     -20.841 -30.761   7.003  0.00  0.00    +0.056 A 
ATOM     10  C11 UNL     1     -19.588 -31.421   6.726  0.00  0.00    +0.056 A 
ATOM     11  C12 UNL     1     -18.679 -31.693   7.800  0.00  0.00    +0.050 A 
ATOM     12  C13 UNL     1     -19.265 -31.747   5.379  0.00  0.00    +0.196 A 
ATOM     13  O3  UNL     1     -18.140 -32.241   5.091  0.00  0.00    -0.287 OA
ATOM     14  C14 UNL     1     -20.176 -31.499   4.337  0.00  0.00    +0.033 A 
ATOM     15  C15 UNL     1     -21.402 -30.854   4.608  0.00  0.00    +0.033 A 
ATOM     16  C16 UNL     1     -21.713 -30.457   5.921  0.00  0.00    +0.196 A 
ATOM     17  O4  UNL     1     -22.773 -29.800   6.117  0.00  0.00    -0.287 OA
ATOM     18  C17 UNL     1     -22.295 -30.593   3.545  0.00  0.00    +0.012 A 
ATOM     19  C18 UNL     1     -21.978 -30.972   2.240  0.00  0.00    +0.001 A 
ATOM     20  C19 UNL     1     -20.768 -31.609   1.973  0.00  0.00    +0.001 A 
ATOM     21  C20 UNL     1     -19.872 -31.871   3.008  0.00  0.00    +0.012 A 
ENDROOT
BRANCH   8  22
ATOM     22  N2  UNL     1     -22.433 -29.836   8.716  0.00  0.00    -0.357 N 
ATOM     23  H10 UNL     1     -22.508 -29.088   9.437  0.00  0.00    +0.142 HD
ATOM     24  H11 UNL     1     -23.320 -30.277   8.384  0.00  0.00    +0.142 HD
ENDBRANCH   8  22
BRANCH  11  25
ATOM     25  N3  UNL     1     -17.474 -32.449   7.618  0.00  0.00    -0.357 N 
ATOM     26  H12 UNL     1     -16.600 -32.199   8.129  0.00  0.00    +0.142 HD
ATOM     27  H13 UNL     1     -17.485 -33.352   7.092  0.00  0.00    +0.142 HD
ENDBRANCH  11  25
BRANCH   1  28
ATOM     28  C4  UNL     1     -18.801 -30.866  12.729  0.00  0.00    +0.128 C 
BRANCH  28  29
ATOM     29  C3  UNL     1     -17.973 -29.636  13.125  0.00  0.00    +0.021 C 
BRANCH  29  31
ATOM     30  C1  UNL     1     -15.449 -29.636  13.115  0.00  0.00    +0.004 C 
ATOM     31  C2  UNL     1     -16.703 -30.016  13.897  0.00  0.00    -0.002 C 
ENDBRANCH  29  31
ENDBRANCH  28  29
ENDBRANCH   1  28
TORSDOF 5
ENDMDL
MODEL 2
REMARK minimizedAffinity -6.57656813
REMARK minimizedRMSD -1
REMARK  Name = /home/tchapet/Post-Doc/ARTICLES-DOSSIERS-DES-ARTICLES-EN-REDACTION/NOUVELS-AXES-DE-RECHERCHE-A-REGARDER-URGEMMENT/ARTICLES-EN-REDACTIONS/ARTICLE_MVOTO/Paper2_JCIM/docking_rerun/ligands/18506.pdb
REMARK  6 active torsions:
REMARK  status: ('A' for Active; 'I' for Inactive)
REMARK    1  A    between atoms: C1_1  and  C2_2
REMARK    2  A    between atoms: C2_2  and  C3_3
REMARK    3  A    between atoms: C3_3  and  C4_4
REMARK    4  A    between atoms: C4_4  and  N1_5
REMARK    5  A    between atoms: C9_12  and  N2_13
REMARK    6  A    between atoms: C12_16  and  N3_17
REMARK                            x       y       z     vdW  Elec       q    Type
REMARK                         _______ _______ _______ _____ _____    ______ ____
ROOT
ATOM      1  N1  UNL     1      -1.247 -10.216   6.627  0.00  0.00    -0.275 N 
ATOM      2  C5  UNL     1      -0.564  -9.082   6.899  0.00  0.00    +0.264 A 
ATOM      3  O1  UNL     1      -0.236  -8.726   8.063  0.00  0.00    -0.267 OA
ATOM      4  C6  UNL     1      -0.259  -8.404   5.725  0.00  0.00    +0.075 A 
ATOM      5  C7  UNL     1      -0.762  -9.161   4.698  0.00  0.00    +0.075 A 
ATOM      6  C8  UNL     1      -1.355 -10.272   5.281  0.00  0.00    +0.264 A 
ATOM      7  O2  UNL     1      -1.902 -11.226   4.666  0.00  0.00    -0.267 OA
ATOM      8  C9  UNL     1      -0.561  -8.821   3.358  0.00  0.00    +0.050 A 
ATOM      9  C10 UNL     1       0.138  -7.603   3.064  0.00  0.00    +0.056 A 
ATOM     10  C11 UNL     1       0.668  -6.808   4.145  0.00  0.00    +0.056 A 
ATOM     11  C12 UNL     1       0.489  -7.246   5.498  0.00  0.00    +0.050 A 
ATOM     12  C13 UNL     1       1.319  -5.581   3.842  0.00  0.00    +0.196 A 
ATOM     13  O3  UNL     1       1.713  -4.817   4.766  0.00  0.00    -0.287 OA
ATOM     14  C14 UNL     1       1.512  -5.175   2.509  0.00  0.00    +0.033 A 
ATOM     15  C15 UNL     1       0.994  -5.953   1.451  0.00  0.00    +0.033 A 
ATOM     16  C16 UNL     1       0.283  -7.135   1.729  0.00  0.00    +0.196 A 
ATOM     17  O4  UNL     1      -0.247  -7.758   0.768  0.00  0.00    -0.287 OA
ATOM     18  C17 UNL     1       1.178  -5.517   0.120  0.00  0.00    +0.012 A 
ATOM     19  C18 UNL     1       1.869  -4.336  -0.154  0.00  0.00    +0.001 A 
ATOM     20  C19 UNL     1       2.379  -3.569   0.890  0.00  0.00    +0.001 A 
ATOM     21  C20 UNL     1       2.203  -3.979   2.211  0.00  0.00    +0.012 A 
ENDROOT
BRANCH   8  22
ATOM     22  N2  UNL     1      -1.008  -9.719   2.333  0.00  0.00    -0.357 N 
ATOM     23  H10 UNL     1      -1.915 -10.226   2.421  0.00  0.00    +0.142 HD
ATOM     24  H11 UNL     1      -0.371 -10.002   1.556  0.00  0.00    +0.142 HD
ENDBRANCH   8  22
BRANCH  11  25
ATOM     25  N3  UNL     1       1.088  -6.571   6.613  0.00  0.00    -0.357 N 
ATOM     26  H12 UNL     1       0.582  -6.475   7.520  0.00  0.00    +0.142 HD
ATOM     27  H13 UNL     1       2.096  -6.297   6.591  0.00  0.00    +0.142 HD
ENDBRANCH  11  25
BRANCH   1  28
ATOM     28  C4  UNL     1      -1.697 -11.227   7.587  0.00  0.00    +0.128 C 
BRANCH  28  29
ATOM     29  C3  UNL     1      -0.652 -12.337   7.761  0.00  0.00    +0.021 C 
BRANCH  29  31
ATOM     30  C1  UNL     1      -1.507 -14.379   6.549  0.00  0.00    +0.004 C 
ATOM     31  C2  UNL     1      -1.295 -13.722   7.909  0.00  0.00    -0.002 C 
ENDBRANCH  29  31
ENDBRANCH  28  29
ENDBRANCH   1  28
TORSDOF 5
ENDMDL
MODEL 3
REMARK minimizedAffinity -6.56532812
REMARK minimizedRMSD -1
REMARK  Name = /home/tchapet/Post-Doc/ARTICLES-DOSSIERS-DES-ARTICLES-EN-REDACTION/NOUVELS-AXES-DE-RECHERCHE-A-REGARDER-URGEMMENT/ARTICLES-EN-REDACTIONS/ARTICLE_MVOTO/Paper2_JCIM/docking_rerun/ligands/18506.pdb
REMARK  6 active torsions:
REMARK  status: ('A' for Active; 'I' for Inactive)
REMARK    1  A    between atoms: C1_1  and  C2_2
REMARK    2  A    between atoms: C2_2  and  C3_3
REMARK    3  A    between atoms: C3_3  and  C4_4
REMARK    4  A    between atoms: C4_4  and  N1_5
REMARK    5  A    between atoms: C9_12  and  N2_13
REMARK    6  A    between atoms: C12_16  and  N3_17
REMARK                            x       y       z     vdW  Elec       q    Type
REMARK                         _______ _______ _______ _____ _____    ______ ____
ROOT
ATOM      1  N1  UNL     1      -1.151 -10.241   6.573  0.00  0.00    -0.275 N 
ATOM      2  C5  UNL     1      -1.259 -10.277   5.226  0.00  0.00    +0.264 A 
ATOM      3  O1  UNL     1      -1.878 -11.178   4.600  0.00  0.00    -0.267 OA
ATOM      4  C6  UNL     1      -0.627  -9.178   4.658  0.00  0.00    +0.075 A 
ATOM      5  C7  UNL     1      -0.128  -8.436   5.697  0.00  0.00    +0.075 A 
ATOM      6  C8  UNL     1      -0.472  -9.108   6.862  0.00  0.00    +0.264 A 
ATOM      7  O2  UNL     1      -0.223  -8.726   8.037  0.00  0.00    -0.267 OA
ATOM      8  C9  UNL     1       0.501  -7.204   5.495  0.00  0.00    +0.050 A 
ATOM      9  C10 UNL     1       0.682  -6.747   4.148  0.00  0.00    +0.056 A 
ATOM     10  C11 UNL     1       0.155  -7.528   3.055  0.00  0.00    +0.056 A 
ATOM     11  C12 UNL     1      -0.542  -8.750   3.330  0.00  0.00    +0.050 A 
ATOM     12  C13 UNL     1       0.380  -7.086   1.722  0.00  0.00    +0.196 A 
ATOM     13  O3  UNL     1       0.014  -7.790   0.741  0.00  0.00    -0.287 OA
ATOM     14  C14 UNL     1       1.043  -5.872   1.465  0.00  0.00    +0.033 A 
ATOM     15  C15 UNL     1       1.558  -5.108   2.535  0.00  0.00    +0.033 A 
ATOM     16  C16 UNL     1       1.410  -5.560   3.859  0.00  0.00    +0.196 A 
ATOM     17  O4  UNL     1       1.962  -4.904   4.785  0.00  0.00    -0.287 OA
ATOM     18  C17 UNL     1       2.240  -3.903   2.256  0.00  0.00    +0.012 A 
ATOM     19  C18 UNL     1       2.400  -3.463   0.942  0.00  0.00    +0.001 A 
ATOM     20  C19 UNL     1       1.892  -4.217  -0.113  0.00  0.00    +0.001 A 
ATOM     21  C20 UNL     1       1.220  -5.412   0.142  0.00  0.00    +0.012 A 
ENDROOT
BRANCH   8  22
ATOM     22  N2  UNL     1       0.891  -6.424   6.633  0.00  0.00    -0.357 N 
ATOM     23  H10 UNL     1       1.295  -6.875   7.482  0.00  0.00    +0.142 HD
ATOM     24  H11 UNL     1       0.639  -5.412   6.698  0.00  0.00    +0.142 HD
ENDBRANCH   8  22
BRANCH  11  25
ATOM     25  N3  UNL     1      -1.193  -9.514   2.306  0.00  0.00    -0.357 N 
ATOM     26  H12 UNL     1      -1.188 -10.557   2.327  0.00  0.00    +0.142 HD
ATOM     27  H13 UNL     1      -1.814  -9.048   1.606  0.00  0.00    +0.142 HD
ENDBRANCH  11  25
BRANCH   1  28
ATOM     28  C4  UNL     1      -1.731 -11.186   7.531  0.00  0.00    +0.128 C 
BRANCH  28  29
ATOM     29  C3  UNL     1      -0.791 -12.373   7.781  0.00  0.00    +0.021 C 
BRANCH  29  31
ATOM     30  C1  UNL     1      -1.115 -14.252   6.128  0.00  0.00    +0.004 C 
ATOM     31  C2  UNL     1      -1.474 -13.720   7.512  0.00  0.00    -0.002 C 
ENDBRANCH  29  31
ENDBRANCH  28  29
ENDBRANCH   1  28
TORSDOF 5
ENDMDL
MODEL 4
REMARK minimizedAffinity -6.40064526
REMARK minimizedRMSD -1
REMARK  Name = /home/tchapet/Post-Doc/ARTICLES-DOSSIERS-DES-ARTICLES-EN-REDACTION/NOUVELS-AXES-DE-RECHERCHE-A-REGARDER-URGEMMENT/ARTICLES-EN-REDACTIONS/ARTICLE_MVOTO/Paper2_JCIM/docking_rerun/ligands/18506.pdb
REMARK  6 active torsions:
REMARK  status: ('A' for Active; 'I' for Inactive)
REMARK    1  A    between atoms: C1_1  and  C2_2
REMARK    2  A    between atoms: C2_2  and  C3_3
REMARK    3  A    between atoms: C3_3  and  C4_4
REMARK    4  A    between atoms: C4_4  and  N1_5
REMARK    5  A    between atoms: C9_12  and  N2_13
REMARK    6  A    between atoms: C12_16  and  N3_17
REMARK                            x       y       z     vdW  Elec       q    Type
REMARK                         _______ _______ _______ _____ _____    ______ ____
ROOT
ATOM      1  N1  UNL     1     -19.102 -31.117  11.333  0.00  0.00    -0.275 N 
ATOM      2  C5  UNL     1     -20.211 -30.608  10.752  0.00  0.00    +0.264 A 
ATOM      3  O1  UNL     1     -21.111 -29.994  11.385  0.00  0.00    -0.267 OA
ATOM      4  C6  UNL     1     -20.189 -30.831   9.381  0.00  0.00    +0.075 A 
ATOM      5  C7  UNL     1     -19.015 -31.489   9.113  0.00  0.00    +0.075 A 
ATOM      6  C8  UNL     1     -18.364 -31.643  10.330  0.00  0.00    +0.264 A 
ATOM      7  O2  UNL     1     -17.233 -32.171  10.500  0.00  0.00    -0.267 OA
ATOM      8  C9  UNL     1     -18.619 -31.798   7.810  0.00  0.00    +0.050 A 
ATOM      9  C10 UNL     1     -19.509 -31.473   6.734  0.00  0.00    +0.056 A 
ATOM     10  C11 UNL     1     -20.742 -30.780   7.016  0.00  0.00    +0.056 A 
ATOM     11  C12 UNL     1     -21.062 -30.426   8.368  0.00  0.00    +0.050 A 
ATOM     12  C13 UNL     1     -21.637 -30.503   5.945  0.00  0.00    +0.196 A 
ATOM     13  O3  UNL     1     -22.764 -29.981   6.169  0.00  0.00    -0.287 OA
ATOM     14  C14 UNL     1     -21.301 -30.830   4.619  0.00  0.00    +0.033 A 
ATOM     15  C15 UNL     1     -20.094 -31.508   4.344  0.00  0.00    +0.033 A 
ATOM     16  C16 UNL     1     -19.225 -31.857   5.394  0.00  0.00    +0.196 A 
ATOM     17  O4  UNL     1     -18.201 -32.543   5.126  0.00  0.00    -0.287 OA
ATOM     18  C17 UNL     1     -19.783 -31.848   3.008  0.00  0.00    +0.012 A 
ATOM     19  C18 UNL     1     -20.653 -31.516   1.968  0.00  0.00    +0.001 A 
ATOM     20  C19 UNL     1     -21.843 -30.848   2.241  0.00  0.00    +0.001 A 
ATOM     21  C20 UNL     1     -22.170 -30.508   3.553  0.00  0.00    +0.012 A 
ENDROOT
BRANCH   8  22
ATOM     22  N2  UNL     1     -17.325 -32.377   7.591  0.00  0.00    -0.357 N 
ATOM     23  H10 UNL     1     -16.941 -33.095   8.242  0.00  0.00    +0.142 HD
ATOM     24  H11 UNL     1     -16.679 -31.985   6.870  0.00  0.00    +0.142 HD
ENDBRANCH   8  22
BRANCH  11  25
ATOM     25  N3  UNL     1     -22.209 -29.636   8.708  0.00  0.00    -0.357 N 
ATOM     26  H12 UNL     1     -22.760 -29.830   9.573  0.00  0.00    +0.142 HD
ATOM     27  H13 UNL     1     -22.427 -28.759   8.184  0.00  0.00    +0.142 HD
ENDBRANCH  11  25
BRANCH   1  28
ATOM     28  C4  UNL     1     -18.729 -31.036  12.747  0.00  0.00    +0.128 C 
BRANCH  28  29
ATOM     29  C3  UNL     1     -18.008 -29.718  13.059  0.00  0.00    +0.021 C 
BRANCH  29  31
ATOM     30  C1  UNL     1     -15.486 -29.634  13.115  0.00  0.00    +0.004 C 
ATOM     31  C2  UNL     1     -16.750 -29.933  13.913  0.00  0.00    -0.002 C 
ENDBRANCH  29  31
ENDBRANCH  28  29
ENDBRANCH   1  28
TORSDOF 5
ENDMDL
MODEL 5
REMARK minimizedAffinity -6.31436968
REMARK minimizedRMSD -1
REMARK  Name = /home/tchapet/Post-Doc/ARTICLES-DOSSIERS-DES-ARTICLES-EN-REDACTION/NOUVELS-AXES-DE-RECHERCHE-A-REGARDER-URGEMMENT/ARTICLES-EN-REDACTIONS/ARTICLE_MVOTO/Paper2_JCIM/docking_rerun/ligands/18506.pdb
REMARK  6 active torsions:
REMARK  status: ('A' for Active; 'I' for Inactive)
REMARK    1  A    between atoms: C1_1  and  C2_2
REMARK    2  A    between atoms: C2_2  and  C3_3
REMARK    3  A    between atoms: C3_3  and  C4_4
REMARK    4  A    between atoms: C4_4  and  N1_5
REMARK    5  A    between atoms: C9_12  and  N2_13
REMARK    6  A    between atoms: C12_16  and  N3_17
REMARK                            x       y       z     vdW  Elec       q    Type
REMARK                         _______ _______ _______ _____ _____    ______ ____
ROOT
ATOM      1  N1  UNL     1     -26.502 -33.378   1.826  0.00  0.00    -0.275 N 
ATOM      2  C5  UNL     1     -25.293 -33.888   1.505  0.00  0.00    +0.264 A 
ATOM      3  O1  UNL     1     -25.132 -35.019   0.972  0.00  0.00    -0.267 OA
ATOM      4  C6  UNL     1     -24.285 -32.984   1.816  0.00  0.00    +0.075 A 
ATOM      5  C7  UNL     1     -24.904 -31.874   2.331  0.00  0.00    +0.075 A 
ATOM      6  C8  UNL     1     -26.266 -32.141   2.317  0.00  0.00    +0.264 A 
ATOM      7  O2  UNL     1     -27.178 -31.350   2.681  0.00  0.00    -0.267 OA
ATOM      8  C9  UNL     1     -24.194 -30.720   2.674  0.00  0.00    +0.050 A 
ATOM      9  C10 UNL     1     -22.767 -30.736   2.540  0.00  0.00    +0.056 A 
ATOM     10  C11 UNL     1     -22.116 -31.904   1.996  0.00  0.00    +0.056 A 
ATOM     11  C12 UNL     1     -22.906 -33.032   1.597  0.00  0.00    +0.050 A 
ATOM     12  C13 UNL     1     -20.697 -31.924   1.911  0.00  0.00    +0.196 A 
ATOM     13  O3  UNL     1     -20.091 -32.962   1.527  0.00  0.00    -0.287 OA
ATOM     14  C14 UNL     1     -19.934 -30.801   2.281  0.00  0.00    +0.033 A 
ATOM     15  C15 UNL     1     -20.571 -29.659   2.812  0.00  0.00    +0.033 A 
ATOM     16  C16 UNL     1     -21.968 -29.642   2.973  0.00  0.00    +0.196 A 
ATOM     17  O4  UNL     1     -22.497 -28.645   3.537  0.00  0.00    -0.287 OA
ATOM     18  C17 UNL     1     -19.786 -28.549   3.199  0.00  0.00    +0.012 A 
ATOM     19  C18 UNL     1     -18.399 -28.573   3.054  0.00  0.00    +0.001 A 
ATOM     20  C19 UNL     1     -17.771 -29.700   2.530  0.00  0.00    +0.001 A 
ATOM     21  C20 UNL     1     -18.528 -30.808   2.147  0.00  0.00    +0.012 A 
ENDROOT
BRANCH   8  22
ATOM     22  N2  UNL     1     -24.916 -29.554   3.093  0.00  0.00    -0.357 N 
ATOM     23  H10 UNL     1     -25.753 -29.632   3.709  0.00  0.00    +0.142 HD
ATOM     24  H11 UNL     1     -24.714 -28.621   2.669  0.00  0.00    +0.142 HD
ENDBRANCH   8  22
BRANCH  11  25
ATOM     25  N3  UNL     1     -22.341 -34.176   0.942  0.00  0.00    -0.357 N 
ATOM     26  H12 UNL     1     -22.685 -35.139   1.147  0.00  0.00    +0.142 HD
ATOM     27  H13 UNL     1     -21.684 -34.059   0.138  0.00  0.00    +0.142 HD
ENDBRANCH  11  25
BRANCH   1  28
ATOM     28  C4  UNL     1     -27.811 -33.998   1.601  0.00  0.00    +0.128 C 
BRANCH  28  29
ATOM     29  C3  UNL     1     -28.165 -34.029   0.109  0.00  0.00    +0.021 C 
BRANCH  29  31
ATOM     30  C1  UNL     1     -27.190 -32.300  -1.450  0.00  0.00    +0.004 C 
ATOM     31  C2  UNL     1     -28.322 -32.620  -0.479  0.00  0.00    -0.002 C 
ENDBRANCH  29  31
ENDBRANCH  28  29
ENDBRANCH   1  28
TORSDOF 5
ENDMDL
MODEL 6
REMARK minimizedAffinity -6.25010729
REMARK minimizedRMSD -1
REMARK  Name = /home/tchapet/Post-Doc/ARTICLES-DOSSIERS-DES-ARTICLES-EN-REDACTION/NOUVELS-AXES-DE-RECHERCHE-A-REGARDER-URGEMMENT/ARTICLES-EN-REDACTIONS/ARTICLE_MVOTO/Paper2_JCIM/docking_rerun/ligands/18506.pdb
REMARK  6 active torsions:
REMARK  status: ('A' for Active; 'I' for Inactive)
REMARK    1  A    between atoms: C1_1  and  C2_2
REMARK    2  A    between atoms: C2_2  and  C3_3
REMARK    3  A    between atoms: C3_3  and  C4_4
REMARK    4  A    between atoms: C4_4  and  N1_5
REMARK    5  A    between atoms: C9_12  and  N2_13
REMARK    6  A    between atoms: C12_16  and  N3_17
REMARK                            x       y       z     vdW  Elec       q    Type
REMARK                         _______ _______ _______ _____ _____    ______ ____
ROOT
ATOM      1  N1  UNL     1      18.282   7.080  13.833  0.00  0.00    -0.275 N 
ATOM      2  C5  UNL     1      17.961   7.724  12.689  0.00  0.00    +0.264 A 
ATOM      3  O1  UNL     1      18.334   8.898  12.421  0.00  0.00    -0.267 OA
ATOM      4  C6  UNL     1      17.203   6.903  11.864  0.00  0.00    +0.075 A 
ATOM      5  C7  UNL     1      17.070   5.707  12.522  0.00  0.00    +0.075 A 
ATOM      6  C8  UNL     1      17.749   5.842  13.725  0.00  0.00    +0.264 A 
ATOM      7  O2  UNL     1      17.889   4.945  14.599  0.00  0.00    -0.267 OA
ATOM      8  C9  UNL     1      16.434   4.607  11.941  0.00  0.00    +0.050 A 
ATOM      9  C10 UNL     1      15.848   4.769  10.642  0.00  0.00    +0.056 A 
ATOM     10  C11 UNL     1      15.990   6.027   9.950  0.00  0.00    +0.056 A 
ATOM     11  C12 UNL     1      16.715   7.098  10.569  0.00  0.00    +0.050 A 
ATOM     12  C13 UNL     1      15.366   6.189   8.682  0.00  0.00    +0.196 A 
ATOM     13  O3  UNL     1      15.393   7.304   8.091  0.00  0.00    -0.287 OA
ATOM     14  C14 UNL     1      14.680   5.123   8.072  0.00  0.00    +0.033 A 
ATOM     15  C15 UNL     1      14.542   3.893   8.750  0.00  0.00    +0.033 A 
ATOM     16  C16 UNL     1      15.089   3.731  10.036  0.00  0.00    +0.196 A 
ATOM     17  O4  UNL     1      14.868   2.652  10.653  0.00  0.00    -0.287 OA
ATOM     18  C17 UNL     1      13.830   2.840   8.131  0.00  0.00    +0.012 A 
ATOM     19  C18 UNL     1      13.274   3.007   6.862  0.00  0.00    +0.001 A 
ATOM     20  C19 UNL     1      13.411   4.221   6.194  0.00  0.00    +0.001 A 
ATOM     21  C20 UNL     1      14.105   5.273   6.791  0.00  0.00    +0.012 A 
ENDROOT
BRANCH   8  22
ATOM     22  N2  UNL     1      16.435   3.352  12.635  0.00  0.00    -0.357 N 
ATOM     23  H10 UNL     1      16.310   3.309  13.669  0.00  0.00    +0.142 HD
ATOM     24  H11 UNL     1      16.714   2.472  12.145  0.00  0.00    +0.142 HD
ENDBRANCH   8  22
BRANCH  11  25
ATOM     25  N3  UNL     1      16.996   8.331   9.893  0.00  0.00    -0.357 N 
ATOM     26  H12 UNL     1      16.977   9.240  10.403  0.00  0.00    +0.142 HD
ATOM     27  H13 UNL     1      17.375   8.331   8.919  0.00  0.00    +0.142 HD
ENDBRANCH  11  25
BRANCH   1  28
ATOM     28  C4  UNL     1      19.114   7.585  14.928  0.00  0.00    +0.128 C 
BRANCH  28  29
ATOM     29  C3  UNL     1      18.267   7.926  16.161  0.00  0.00    +0.021 C 
BRANCH  29  31
ATOM     30  C1  UNL     1      15.832   8.566  15.978  0.00  0.00    +0.004 C 
ATOM     31  C2  UNL     1      17.272   9.062  15.885  0.00  0.00    -0.002 C 
ENDBRANCH  29  31
ENDBRANCH  28  29
ENDBRANCH   1  28
TORSDOF 5
ENDMDL
MODEL 7
REMARK minimizedAffinity -6.23980713
REMARK minimizedRMSD -1
REMARK  Name = /home/tchapet/Post-Doc/ARTICLES-DOSSIERS-DES-ARTICLES-EN-REDACTION/NOUVELS-AXES-DE-RECHERCHE-A-REGARDER-URGEMMENT/ARTICLES-EN-REDACTIONS/ARTICLE_MVOTO/Paper2_JCIM/docking_rerun/ligands/18506.pdb
REMARK  6 active torsions:
REMARK  status: ('A' for Active; 'I' for Inactive)
REMARK    1  A    between atoms: C1_1  and  C2_2
REMARK    2  A    between atoms: C2_2  and  C3_3
REMARK    3  A    between atoms: C3_3  and  C4_4
REMARK    4  A    between atoms: C4_4  and  N1_5
REMARK    5  A    between atoms: C9_12  and  N2_13
REMARK    6  A    between atoms: C12_16  and  N3_17
REMARK                            x       y       z     vdW  Elec       q    Type
REMARK                         _______ _______ _______ _____ _____    ______ ____
ROOT
ATOM      1  N1  UNL     1      -0.572  -8.718   5.176  0.00  0.00    -0.275 N 
ATOM      2  C5  UNL     1      -0.231  -8.332   3.927  0.00  0.00    +0.264 A 
ATOM      3  O1  UNL     1      -0.773  -8.786   2.884  0.00  0.00    -0.267 OA
ATOM      4  C6  UNL     1       0.761  -7.360   3.972  0.00  0.00    +0.075 A 
ATOM      5  C7  UNL     1       1.024  -7.135   5.299  0.00  0.00    +0.075 A 
ATOM      6  C8  UNL     1       0.184  -7.977   6.015  0.00  0.00    +0.264 A 
ATOM      7  O2  UNL     1       0.100  -8.042   7.271  0.00  0.00    -0.267 OA
ATOM      8  C9  UNL     1       1.917  -6.146   5.721  0.00  0.00    +0.050 A 
ATOM      9  C10 UNL     1       2.623  -5.398   4.723  0.00  0.00    +0.056 A 
ATOM     10  C11 UNL     1       2.345  -5.635   3.327  0.00  0.00    +0.056 A 
ATOM     11  C12 UNL     1       1.367  -6.616   2.957  0.00  0.00    +0.050 A 
ATOM     12  C13 UNL     1       3.085  -4.919   2.346  0.00  0.00    +0.196 A 
ATOM     13  O3  UNL     1       2.933  -5.167   1.118  0.00  0.00    -0.287 OA
ATOM     14  C14 UNL     1       4.024  -3.941   2.721  0.00  0.00    +0.033 A 
ATOM     15  C15 UNL     1       4.296  -3.709   4.086  0.00  0.00    +0.033 A 
ATOM     16  C16 UNL     1       3.629  -4.455   5.074  0.00  0.00    +0.196 A 
ATOM     17  O4  UNL     1       3.961  -4.291   6.281  0.00  0.00    -0.287 OA
ATOM     18  C17 UNL     1       5.259  -2.738   4.443  0.00  0.00    +0.012 A 
ATOM     19  C18 UNL     1       5.932  -2.009   3.462  0.00  0.00    +0.001 A 
ATOM     20  C19 UNL     1       5.664  -2.238   2.115  0.00  0.00    +0.001 A 
ATOM     21  C20 UNL     1       4.721  -3.196   1.743  0.00  0.00    +0.012 A 
ENDROOT
BRANCH   8  22
ATOM     22  N2  UNL     1       2.054  -5.881   7.124  0.00  0.00    -0.357 N 
ATOM     23  H10 UNL     1       2.054  -6.656   7.820  0.00  0.00    +0.142 HD
ATOM     24  H11 UNL     1       2.003  -4.904   7.490  0.00  0.00    +0.142 HD
ENDBRANCH   8  22
BRANCH  11  25
ATOM     25  N3  UNL     1       0.955  -6.820   1.598  0.00  0.00    -0.357 N 
ATOM     26  H12 UNL     1       0.744  -7.776   1.238  0.00  0.00    +0.142 HD
ATOM     27  H13 UNL     1       0.709  -6.008   0.988  0.00  0.00    +0.142 HD
ENDBRANCH  11  25
BRANCH   1  28
ATOM     28  C4  UNL     1      -1.614  -9.679   5.551  0.00  0.00    +0.128 C 
BRANCH  28  29
ATOM     29  C3  UNL     1      -1.062 -11.109   5.601  0.00  0.00    +0.021 C 
BRANCH  29  31
ATOM     30  C1  UNL     1      -1.989 -11.530   7.911  0.00  0.00    +0.004 C 
ATOM     31  C2  UNL     1      -0.742 -11.557   7.034  0.00  0.00    -0.002 C 
ENDBRANCH  29  31
ENDBRANCH  28  29
ENDBRANCH   1  28
TORSDOF 5
ENDMDL
MODEL 8
REMARK minimizedAffinity -6.23435211
REMARK minimizedRMSD -1
REMARK  Name = /home/tchapet/Post-Doc/ARTICLES-DOSSIERS-DES-ARTICLES-EN-REDACTION/NOUVELS-AXES-DE-RECHERCHE-A-REGARDER-URGEMMENT/ARTICLES-EN-REDACTIONS/ARTICLE_MVOTO/Paper2_JCIM/docking_rerun/ligands/18506.pdb
REMARK  6 active torsions:
REMARK  status: ('A' for Active; 'I' for Inactive)
REMARK    1  A    between atoms: C1_1  and  C2_2
REMARK    2  A    between atoms: C2_2  and  C3_3
REMARK    3  A    between atoms: C3_3  and  C4_4
REMARK    4  A    between atoms: C4_4  and  N1_5
REMARK    5  A    between atoms: C9_12  and  N2_13
REMARK    6  A    between atoms: C12_16  and  N3_17
REMARK                            x       y       z     vdW  Elec       q    Type
REMARK                         _______ _______ _______ _____ _____    ______ ____
ROOT
ATOM      1  N1  UNL     1      -0.569  -9.356   5.714  0.00  0.00    -0.275 N 
ATOM      2  C5  UNL     1       0.335  -8.736   6.504  0.00  0.00    +0.264 A 
ATOM      3  O1  UNL     1       0.554  -9.061   7.702  0.00  0.00    -0.267 OA
ATOM      4  C6  UNL     1       0.991  -7.734   5.800  0.00  0.00    +0.075 A 
ATOM      5  C7  UNL     1       0.478  -7.754   4.528  0.00  0.00    +0.075 A 
ATOM      6  C8  UNL     1      -0.472  -8.766   4.502  0.00  0.00    +0.264 A 
ATOM      7  O2  UNL     1      -1.144  -9.122   3.498  0.00  0.00    -0.267 OA
ATOM      8  C9  UNL     1       0.974  -6.929   3.515  0.00  0.00    +0.050 A 
ATOM      9  C10 UNL     1       2.006  -5.991   3.847  0.00  0.00    +0.056 A 
ATOM     10  C11 UNL     1       2.546  -5.972   5.185  0.00  0.00    +0.056 A 
ATOM     11  C12 UNL     1       2.044  -6.891   6.164  0.00  0.00    +0.050 A 
ATOM     12  C13 UNL     1       3.537  -5.005   5.514  0.00  0.00    +0.196 A 
ATOM     13  O3  UNL     1       3.964  -4.900   6.697  0.00  0.00    -0.287 OA
ATOM     14  C14 UNL     1       4.040  -4.126   4.539  0.00  0.00    +0.033 A 
ATOM     15  C15 UNL     1       3.512  -4.145   3.230  0.00  0.00    +0.033 A 
ATOM     16  C16 UNL     1       2.481  -5.043   2.899  0.00  0.00    +0.196 A 
ATOM     17  O4  UNL     1       1.966  -4.972   1.749  0.00  0.00    -0.287 OA
ATOM     18  C17 UNL     1       4.015  -3.239   2.269  0.00  0.00    +0.012 A 
ATOM     19  C18 UNL     1       5.027  -2.338   2.603  0.00  0.00    +0.001 A 
ATOM     20  C19 UNL     1       5.547  -2.319   3.894  0.00  0.00    +0.001 A 
ATOM     21  C20 UNL     1       5.060  -3.202   4.857  0.00  0.00    +0.012 A 
ENDROOT
BRANCH   8  22
ATOM     22  N2  UNL     1       0.476  -7.086   2.179  0.00  0.00    -0.357 N 
ATOM     23  H10 UNL     1      -0.534  -7.272   2.000  0.00  0.00    +0.142 HD
ATOM     24  H11 UNL     1       1.133  -7.170   1.371  0.00  0.00    +0.142 HD
ENDBRANCH   8  22
BRANCH  11  25
ATOM     25  N3  UNL     1       2.613  -7.009   7.475  0.00  0.00    -0.357 N 
ATOM     26  H12 UNL     1       2.011  -7.180   8.310  0.00  0.00    +0.142 HD
ATOM     27  H13 UNL     1       3.648  -7.080   7.603  0.00  0.00    +0.142 HD
ENDBRANCH  11  25
BRANCH   1  28
ATOM     28  C4  UNL     1      -1.417 -10.497   6.069  0.00  0.00    +0.128 C 
BRANCH  28  29
ATOM     29  C3  UNL     1      -0.668 -11.825   5.896  0.00  0.00    +0.021 C 
BRANCH  29  31
ATOM     30  C1  UNL     1      -0.473 -12.527   3.480  0.00  0.00    +0.004 C 
ATOM     31  C2  UNL     1      -1.264 -12.686   4.775  0.00  0.00    -0.002 C 
ENDBRANCH  29  31
ENDBRANCH  28  29
ENDBRANCH   1  28
TORSDOF 5
ENDMDL
MODEL 9
REMARK minimizedAffinity -6.20515776
REMARK minimizedRMSD -1
REMARK  Name = /home/tchapet/Post-Doc/ARTICLES-DOSSIERS-DES-ARTICLES-EN-REDACTION/NOUVELS-AXES-DE-RECHERCHE-A-REGARDER-URGEMMENT/ARTICLES-EN-REDACTIONS/ARTICLE_MVOTO/Paper2_JCIM/docking_rerun/ligands/18506.pdb
REMARK  6 active torsions:
REMARK  status: ('A' for Active; 'I' for Inactive)
REMARK    1  A    between atoms: C1_1  and  C2_2
REMARK    2  A    between atoms: C2_2  and  C3_3
REMARK    3  A    between atoms: C3_3  and  C4_4
REMARK    4  A    between atoms: C4_4  and  N1_5
REMARK    5  A    between atoms: C9_12  and  N2_13
REMARK    6  A    between atoms: C12_16  and  N3_17
REMARK                            x       y       z     vdW  Elec       q    Type
REMARK                         _______ _______ _______ _____ _____    ______ ____
ROOT
ATOM      1  N1  UNL     1     -21.199 -30.964   5.099  0.00  0.00    -0.275 N 
ATOM      2  C5  UNL     1     -20.024 -31.504   5.491  0.00  0.00    +0.264 A 
ATOM      3  O1  UNL     1     -19.200 -32.033   4.699  0.00  0.00    -0.267 OA
ATOM      4  C6  UNL     1     -19.857 -31.360   6.863  0.00  0.00    +0.075 A 
ATOM      5  C7  UNL     1     -20.965 -30.695   7.322  0.00  0.00    +0.075 A 
ATOM      6  C8  UNL     1     -21.768 -30.457   6.215  0.00  0.00    +0.264 A 
ATOM      7  O2  UNL     1     -22.864 -29.835   6.218  0.00  0.00    -0.267 OA
ATOM      8  C9  UNL     1     -21.093 -30.299   8.656  0.00  0.00    +0.050 A 
ATOM      9  C10 UNL     1     -20.058 -30.668   9.576  0.00  0.00    +0.056 A 
ATOM     10  C11 UNL     1     -18.892 -31.368   9.093  0.00  0.00    +0.056 A 
ATOM     11  C12 UNL     1     -18.785 -31.685   7.698  0.00  0.00    +0.050 A 
ATOM     12  C13 UNL     1     -17.893 -31.767  10.023  0.00  0.00    +0.196 A 
ATOM     13  O3  UNL     1     -16.907 -32.460   9.649  0.00  0.00    -0.287 OA
ATOM     14  C14 UNL     1     -17.996 -31.428  11.384  0.00  0.00    +0.033 A 
ATOM     15  C15 UNL     1     -19.136 -30.743  11.857  0.00  0.00    +0.033 A 
ATOM     16  C16 UNL     1     -20.171 -30.400  10.969  0.00  0.00    +0.196 A 
ATOM     17  O4  UNL     1     -21.218 -29.873  11.437  0.00  0.00    -0.287 OA
ATOM     18  C17 UNL     1     -19.232 -30.431  13.232  0.00  0.00    +0.012 A 
ATOM     19  C18 UNL     1     -18.213 -30.786  14.116  0.00  0.00    +0.001 A 
ATOM     20  C19 UNL     1     -17.088 -31.461  13.648  0.00  0.00    +0.001 A 
ATOM     21  C20 UNL     1     -16.977 -31.783  12.296  0.00  0.00    +0.012 A 
ENDROOT
BRANCH   8  22
ATOM     22  N2  UNL     1     -22.220 -29.501   9.043  0.00  0.00    -0.357 N 
ATOM     23  H10 UNL     1     -23.169 -29.684   8.651  0.00  0.00    +0.142 HD
ATOM     24  H11 UNL     1     -22.089 -28.629   9.603  0.00  0.00    +0.142 HD
ENDBRANCH   8  22
BRANCH  11  25
ATOM     25  N3  UNL     1     -17.607 -32.271   7.129  0.00  0.00    -0.357 N 
ATOM     26  H12 UNL     1     -17.673 -32.984   6.370  0.00  0.00    +0.142 HD
ATOM     27  H13 UNL     1     -16.660 -31.888   7.351  0.00  0.00    +0.142 HD
ENDBRANCH  11  25
BRANCH   1  28
ATOM     28  C4  UNL     1     -21.713 -30.865   3.730  0.00  0.00    +0.128 C 
BRANCH  28  29
ATOM     29  C3  UNL     1     -21.405 -29.493   3.116  0.00  0.00    +0.021 C 
BRANCH  29  31
ATOM     30  C1  UNL     1     -19.052 -28.581   3.095  0.00  0.00    +0.004 C 
ATOM     31  C2  UNL     1     -20.059 -29.475   2.379  0.00  0.00    -0.002 C 
ENDBRANCH  29  31
ENDBRANCH  28  29
ENDBRANCH   1  28
TORSDOF 5
ENDMDL
