MODEL 1
REMARK minimizedAffinity -6.50284195
REMARK minimizedRMSD -1
REMARK  Name = /home/tchapet/Post-Doc/ARTICLES-DOSSIERS-DES-ARTICLES-EN-REDACTION/NOUVELS-AXES-DE-RECHERCHE-A-REGARDER-URGEMMENT/ARTICLES-EN-REDACTIONS/ARTICLE_MVOTO/Paper2_JCIM/docking_rerun/ligands/18506.pdb
REMARK  6 active torsions:
REMARK  status: ('A' for Active; 'I' for Inactive)
REMARK    1  A    between atoms: C1_1  and  C2_2
REMARK    2  A    between atoms: C2_2  and  C3_3
REMARK    3  A    between atoms: C3_3  and  C4_4
REMARK    4  A    between atoms: C4_4  and  N1_5
REMARK    5  A    between atoms: C9_12  and  N2_13
REMARK    6  A    between atoms: C12_16  and  N3_17
REMARK                            x       y       z     vdW  Elec       q    Type
REMARK                         _______ _______ _______ _____ _____    ______ ____
ROOT
ATOM      1  N1  UNL     1       6.629  12.726  17.475  0.00  0.00    -0.275 N 
ATOM      2  C5  UNL     1       5.770  12.607  18.511  0.00  0.00    +0.264 A 
ATOM      3  O1  UNL     1       5.024  11.607  18.688  0.00  0.00    -0.267 OA
ATOM      4  C6  UNL     1       5.857  13.715  19.345  0.00  0.00    +0.075 A 
ATOM      5  C7  UNL     1       6.817  14.533  18.806  0.00  0.00    +0.075 A 
ATOM      6  C8  UNL     1       7.279  13.896  17.663  0.00  0.00    +0.264 A 
ATOM      7  O2  UNL     1       8.194  14.314  16.903  0.00  0.00    -0.267 OA
ATOM      8  C9  UNL     1       7.231  15.708  19.438  0.00  0.00    +0.050 A 
ATOM      9  C10 UNL     1       6.576  16.092  20.654  0.00  0.00    +0.056 A 
ATOM     10  C11 UNL     1       5.567  15.230  21.222  0.00  0.00    +0.056 A 
ATOM     11  C12 UNL     1       5.234  14.002  20.562  0.00  0.00    +0.050 A 
ATOM     12  C13 UNL     1       4.893  15.645  22.404  0.00  0.00    +0.196 A 
ATOM     13  O3  UNL     1       3.943  14.960  22.875  0.00  0.00    -0.287 OA
ATOM     14  C14 UNL     1       5.247  16.840  23.056  0.00  0.00    +0.033 A 
ATOM     15  C15 UNL     1       6.234  17.682  22.501  0.00  0.00    +0.033 A 
ATOM     16  C16 UNL     1       6.864  17.329  21.294  0.00  0.00    +0.196 A 
ATOM     17  O4  UNL     1       7.674  18.147  20.776  0.00  0.00    -0.287 OA
ATOM     18  C17 UNL     1       6.560  18.890  23.159  0.00  0.00    +0.012 A 
ATOM     19  C18 UNL     1       5.922  19.247  24.347  0.00  0.00    +0.001 A 
ATOM     20  C19 UNL     1       4.949  18.416  24.895  0.00  0.00    +0.001 A 
ATOM     21  C20 UNL     1       4.609  17.222  24.257  0.00  0.00    +0.012 A 
ENDROOT
BRANCH   8  22
ATOM     22  N2  UNL     1       8.323  16.453  18.883  0.00  0.00    -0.357 N 
ATOM     23  H10 UNL     1       8.425  16.569  17.852  0.00  0.00    +0.142 HD
ATOM     24  H11 UNL     1       9.119  16.763  19.484  0.00  0.00    +0.142 HD
ENDBRANCH   8  22
BRANCH  11  25
ATOM     25  N3  UNL     1       4.330  13.043  21.129  0.00  0.00    -0.357 N 
ATOM     26  H12 UNL     1       3.668  12.507  20.527  0.00  0.00    +0.142 HD
ATOM     27  H13 UNL     1       4.420  12.750  22.128  0.00  0.00    +0.142 HD
ENDBRANCH  11  25
BRANCH   1  28
ATOM     28  C4  UNL     1       6.874  11.746  16.413  0.00  0.00    +0.128 C 
BRANCH  28  29
ATOM     29  C3  UNL     1       5.861  11.897  15.271  0.00  0.00    +0.021 C 
BRANCH  29  31
ATOM     30  C1  UNL     1       5.567  14.220  14.329  0.00  0.00    +0.004 C 
ATOM     31  C2  UNL     1       6.328  12.904  14.211  0.00  0.00    -0.002 C 
ENDBRANCH  29  31
ENDBRANCH  28  29
ENDBRANCH   1  28
TORSDOF 5
ENDMDL
MODEL 2
REMARK minimizedAffinity -6.24159336
REMARK minimizedRMSD -1
REMARK  Name = /home/tchapet/Post-Doc/ARTICLES-DOSSIERS-DES-ARTICLES-EN-REDACTION/NOUVELS-AXES-DE-RECHERCHE-A-REGARDER-URGEMMENT/ARTICLES-EN-REDACTIONS/ARTICLE_MVOTO/Paper2_JCIM/docking_rerun/ligands/18506.pdb
REMARK  6 active torsions:
REMARK  status: ('A' for Active; 'I' for Inactive)
REMARK    1  A    between atoms: C1_1  and  C2_2
REMARK    2  A    between atoms: C2_2  and  C3_3
REMARK    3  A    between atoms: C3_3  and  C4_4
REMARK    4  A    between atoms: C4_4  and  N1_5
REMARK    5  A    between atoms: C9_12  and  N2_13
REMARK    6  A    between atoms: C12_16  and  N3_17
REMARK                            x       y       z     vdW  Elec       q    Type
REMARK                         _______ _______ _______ _____ _____    ______ ____
ROOT
ATOM      1  N1  UNL     1       6.628  12.535  17.231  0.00  0.00    -0.275 N 
ATOM      2  C5  UNL     1       7.201  13.755  17.336  0.00  0.00    +0.264 A 
ATOM      3  O1  UNL     1       7.942  14.256  16.449  0.00  0.00    -0.267 OA
ATOM      4  C6  UNL     1       6.828  14.367  18.526  0.00  0.00    +0.075 A 
ATOM      5  C7  UNL     1       5.985  13.494  19.165  0.00  0.00    +0.075 A 
ATOM      6  C8  UNL     1       5.874  12.381  18.342  0.00  0.00    +0.264 A 
ATOM      7  O2  UNL     1       5.157  11.368  18.562  0.00  0.00    -0.267 OA
ATOM      8  C9  UNL     1       5.344  13.822  20.362  0.00  0.00    +0.050 A 
ATOM      9  C10 UNL     1       5.641  15.089  20.966  0.00  0.00    +0.056 A 
ATOM     10  C11 UNL     1       6.527  16.007  20.293  0.00  0.00    +0.056 A 
ATOM     11  C12 UNL     1       7.100  15.641  19.030  0.00  0.00    +0.050 A 
ATOM     12  C13 UNL     1       6.848  17.241  20.923  0.00  0.00    +0.196 A 
ATOM     13  O3  UNL     1       7.690  18.027  20.407  0.00  0.00    -0.287 OA
ATOM     14  C14 UNL     1       6.259  17.601  22.149  0.00  0.00    +0.033 A 
ATOM     15  C15 UNL     1       5.392  16.702  22.807  0.00  0.00    +0.033 A 
ATOM     16  C16 UNL     1       5.115  15.446  22.238  0.00  0.00    +0.196 A 
ATOM     17  O4  UNL     1       4.412  14.629  22.894  0.00  0.00    -0.287 OA
ATOM     18  C17 UNL     1       4.828  17.072  24.049  0.00  0.00    +0.012 A 
ATOM     19  C18 UNL     1       5.116  18.312  24.620  0.00  0.00    +0.001 A 
ATOM     20  C19 UNL     1       5.972  19.198  23.971  0.00  0.00    +0.001 A 
ATOM     21  C20 UNL     1       6.542  18.849  22.747  0.00  0.00    +0.012 A 
ENDROOT
BRANCH   8  22
ATOM     22  N2  UNL     1       4.383  12.912  20.914  0.00  0.00    -0.357 N 
ATOM     23  H10 UNL     1       4.539  11.882  20.885  0.00  0.00    +0.142 HD
ATOM     24  H11 UNL     1       3.441  13.249  21.215  0.00  0.00    +0.142 HD
ENDBRANCH   8  22
BRANCH  11  25
ATOM     25  N3  UNL     1       7.892  16.548  18.251  0.00  0.00    -0.357 N 
ATOM     26  H12 UNL     1       8.720  16.213  17.713  0.00  0.00    +0.142 HD
ATOM     27  H13 UNL     1       7.570  17.527  18.082  0.00  0.00    +0.142 HD
ENDBRANCH  11  25
BRANCH   1  28
ATOM     28  C4  UNL     1       6.729  11.606  16.102  0.00  0.00    +0.128 C 
BRANCH  28  29
ATOM     29  C3  UNL     1       5.765  11.994  14.973  0.00  0.00    +0.021 C 
BRANCH  29  31
ATOM     30  C1  UNL     1       3.303  12.197  15.492  0.00  0.00    +0.004 C 
ATOM     31  C2  UNL     1       4.425  11.252  15.074  0.00  0.00    -0.002 C 
ENDBRANCH  29  31
ENDBRANCH  28  29
ENDBRANCH   1  28
TORSDOF 5
ENDMDL
MODEL 3
REMARK minimizedAffinity -5.96800995
REMARK minimizedRMSD -1
REMARK  Name = /home/tchapet/Post-Doc/ARTICLES-DOSSIERS-DES-ARTICLES-EN-REDACTION/NOUVELS-AXES-DE-RECHERCHE-A-REGARDER-URGEMMENT/ARTICLES-EN-REDACTIONS/ARTICLE_MVOTO/Paper2_JCIM/docking_rerun/ligands/18506.pdb
REMARK  6 active torsions:
REMARK  status: ('A' for Active; 'I' for Inactive)
REMARK    1  A    between atoms: C1_1  and  C2_2
REMARK    2  A    between atoms: C2_2  and  C3_3
REMARK    3  A    between atoms: C3_3  and  C4_4
REMARK    4  A    between atoms: C4_4  and  N1_5
REMARK    5  A    between atoms: C9_12  and  N2_13
REMARK    6  A    between atoms: C12_16  and  N3_17
REMARK                            x       y       z     vdW  Elec       q    Type
REMARK                         _______ _______ _______ _____ _____    ______ ____
ROOT
ATOM      1  N1  UNL     1      36.412  14.628  27.218  0.00  0.00    -0.275 N 
ATOM      2  C5  UNL     1      35.510  14.020  28.020  0.00  0.00    +0.264 A 
ATOM      3  O1  UNL     1      34.813  14.629  28.875  0.00  0.00    -0.267 OA
ATOM      4  C6  UNL     1      35.449  12.660  27.740  0.00  0.00    +0.075 A 
ATOM      5  C7  UNL     1      36.336  12.434  26.719  0.00  0.00    +0.075 A 
ATOM      6  C8  UNL     1      36.906  13.662  26.413  0.00  0.00    +0.264 A 
ATOM      7  O2  UNL     1      37.749  13.878  25.501  0.00  0.00    -0.267 OA
ATOM      8  C9  UNL     1      36.472  11.179  26.119  0.00  0.00    +0.050 A 
ATOM      9  C10 UNL     1      35.704  10.089  26.644  0.00  0.00    +0.056 A 
ATOM     10  C11 UNL     1      34.770  10.328  27.717  0.00  0.00    +0.056 A 
ATOM     11  C12 UNL     1      34.623  11.653  28.245  0.00  0.00    +0.050 A 
ATOM     12  C13 UNL     1      34.046   9.229  28.258  0.00  0.00    +0.196 A 
ATOM     13  O3  UNL     1      33.291   9.387  29.257  0.00  0.00    -0.287 OA
ATOM     14  C14 UNL     1      34.179   7.939  27.715  0.00  0.00    +0.033 A 
ATOM     15  C15 UNL     1      35.092   7.705  26.664  0.00  0.00    +0.033 A 
ATOM     16  C16 UNL     1      35.871   8.762  26.160  0.00  0.00    +0.196 A 
ATOM     17  O4  UNL     1      36.744   8.502  25.286  0.00  0.00    -0.287 OA
ATOM     18  C17 UNL     1      35.227   6.397  26.146  0.00  0.00    +0.012 A 
ATOM     19  C18 UNL     1      34.466   5.346  26.658  0.00  0.00    +0.001 A 
ATOM     20  C19 UNL     1      33.565   5.578  27.694  0.00  0.00    +0.001 A 
ATOM     21  C20 UNL     1      33.421   6.860  28.223  0.00  0.00    +0.012 A 
ENDROOT
BRANCH   8  22
ATOM     22  N2  UNL     1      37.329  11.040  24.977  0.00  0.00    -0.357 N 
ATOM     23  H10 UNL     1      38.241  11.541  24.925  0.00  0.00    +0.142 HD
ATOM     24  H11 UNL     1      36.992  10.559  24.113  0.00  0.00    +0.142 HD
ENDBRANCH   8  22
BRANCH  11  25
ATOM     25  N3  UNL     1      33.633  11.987  29.227  0.00  0.00    -0.357 N 
ATOM     26  H12 UNL     1      33.839  12.669  29.989  0.00  0.00    +0.142 HD
ATOM     27  H13 UNL     1      32.643  11.674  29.114  0.00  0.00    +0.142 HD
ENDBRANCH  11  25
BRANCH   1  28
ATOM     28  C4  UNL     1      36.725  16.059  27.167  0.00  0.00    +0.128 C 
BRANCH  28  29
ATOM     29  C3  UNL     1      37.890  16.409  28.101  0.00  0.00    +0.021 C 
BRANCH  29  31
ATOM     30  C1  UNL     1      40.123  15.311  27.674  0.00  0.00    +0.004 C 
ATOM     31  C2  UNL     1      39.227  16.503  27.352  0.00  0.00    -0.002 C 
ENDBRANCH  29  31
ENDBRANCH  28  29
ENDBRANCH   1  28
TORSDOF 5
ENDMDL
MODEL 4
REMARK minimizedAffinity -5.9603734
REMARK minimizedRMSD -1
REMARK  Name = /home/tchapet/Post-Doc/ARTICLES-DOSSIERS-DES-ARTICLES-EN-REDACTION/NOUVELS-AXES-DE-RECHERCHE-A-REGARDER-URGEMMENT/ARTICLES-EN-REDACTIONS/ARTICLE_MVOTO/Paper2_JCIM/docking_rerun/ligands/18506.pdb
REMARK  6 active torsions:
REMARK  status: ('A' for Active; 'I' for Inactive)
REMARK    1  A    between atoms: C1_1  and  C2_2
REMARK    2  A    between atoms: C2_2  and  C3_3
REMARK    3  A    between atoms: C3_3  and  C4_4
REMARK    4  A    between atoms: C4_4  and  N1_5
REMARK    5  A    between atoms: C9_12  and  N2_13
REMARK    6  A    between atoms: C12_16  and  N3_17
REMARK                            x       y       z     vdW  Elec       q    Type
REMARK                         _______ _______ _______ _____ _____    ______ ____
ROOT
ATOM      1  N1  UNL     1       6.910  17.673  22.923  0.00  0.00    -0.275 N 
ATOM      2  C5  UNL     1       5.972  16.705  22.823  0.00  0.00    +0.264 A 
ATOM      3  O1  UNL     1       5.081  16.504  23.690  0.00  0.00    -0.267 OA
ATOM      4  C6  UNL     1       6.120  16.006  21.631  0.00  0.00    +0.075 A 
ATOM      5  C7  UNL     1       7.179  16.579  20.974  0.00  0.00    +0.075 A 
ATOM      6  C8  UNL     1       7.638  17.605  21.787  0.00  0.00    +0.264 A 
ATOM      7  O2  UNL     1       8.583  18.395  21.517  0.00  0.00    -0.267 OA
ATOM      8  C9  UNL     1       7.558  16.180  19.689  0.00  0.00    +0.050 A 
ATOM      9  C10 UNL     1       6.853  15.090  19.080  0.00  0.00    +0.056 A 
ATOM     10  C11 UNL     1       5.738  14.489  19.772  0.00  0.00    +0.056 A 
ATOM     11  C12 UNL     1       5.352  14.989  21.059  0.00  0.00    +0.050 A 
ATOM     12  C13 UNL     1       5.076  13.380  19.177  0.00  0.00    +0.196 A 
ATOM     13  O3  UNL     1       4.158  12.773  19.795  0.00  0.00    -0.287 OA
ATOM     14  C14 UNL     1       5.447  12.915  17.903  0.00  0.00    +0.033 A 
ATOM     15  C15 UNL     1       6.536  13.504  17.226  0.00  0.00    +0.033 A 
ATOM     16  C16 UNL     1       7.253  14.556  17.825  0.00  0.00    +0.196 A 
ATOM     17  O4  UNL     1       8.279  14.998  17.237  0.00  0.00    -0.287 OA
ATOM     18  C17 UNL     1       6.908  13.009  15.955  0.00  0.00    +0.012 A 
ATOM     19  C18 UNL     1       6.207  11.955  15.369  0.00  0.00    +0.001 A 
ATOM     20  C19 UNL     1       5.132  11.375  16.037  0.00  0.00    +0.001 A 
ATOM     21  C20 UNL     1       4.753  11.846  17.294  0.00  0.00    +0.012 A 
ENDROOT
BRANCH   8  22
ATOM     22  N2  UNL     1       8.596  16.902  19.011  0.00  0.00    -0.357 N 
ATOM     23  H10 UNL     1       9.438  17.241  19.523  0.00  0.00    +0.142 HD
ATOM     24  H11 UNL     1       8.460  17.235  18.030  0.00  0.00    +0.142 HD
ENDBRANCH   8  22
BRANCH  11  25
ATOM     25  N3  UNL     1       4.186  14.520  21.750  0.00  0.00    -0.357 N 
ATOM     26  H12 UNL     1       4.185  14.404  22.787  0.00  0.00    +0.142 HD
ATOM     27  H13 UNL     1       3.271  14.433  21.253  0.00  0.00    +0.142 HD
ENDBRANCH  11  25
BRANCH   1  28
ATOM     28  C4  UNL     1       7.053  18.656  24.001  0.00  0.00    +0.128 C 
BRANCH  28  29
ATOM     29  C3  UNL     1       8.259  18.333  24.894  0.00  0.00    +0.021 C 
BRANCH  29  31
ATOM     30  C1  UNL     1       9.303  19.964  26.512  0.00  0.00    +0.004 C 
ATOM     31  C2  UNL     1       8.150  18.993  26.275  0.00  0.00    -0.002 C 
ENDBRANCH  29  31
ENDBRANCH  28  29
ENDBRANCH   1  28
TORSDOF 5
ENDMDL
MODEL 5
REMARK minimizedAffinity -5.94111538
REMARK minimizedRMSD -1
REMARK  Name = /home/tchapet/Post-Doc/ARTICLES-DOSSIERS-DES-ARTICLES-EN-REDACTION/NOUVELS-AXES-DE-RECHERCHE-A-REGARDER-URGEMMENT/ARTICLES-EN-REDACTIONS/ARTICLE_MVOTO/Paper2_JCIM/docking_rerun/ligands/18506.pdb
REMARK  6 active torsions:
REMARK  status: ('A' for Active; 'I' for Inactive)
REMARK    1  A    between atoms: C1_1  and  C2_2
REMARK    2  A    between atoms: C2_2  and  C3_3
REMARK    3  A    between atoms: C3_3  and  C4_4
REMARK    4  A    between atoms: C4_4  and  N1_5
REMARK    5  A    between atoms: C9_12  and  N2_13
REMARK    6  A    between atoms: C12_16  and  N3_17
REMARK                            x       y       z     vdW  Elec       q    Type
REMARK                         _______ _______ _______ _____ _____    ______ ____
ROOT
ATOM      1  N1  UNL     1       5.668  -5.487  32.900  0.00  0.00    -0.275 N 
ATOM      2  C5  UNL     1       5.312  -6.749  33.228  0.00  0.00    +0.264 A 
ATOM      3  O1  UNL     1       4.924  -7.604  32.388  0.00  0.00    -0.267 OA
ATOM      4  C6  UNL     1       5.468  -6.960  34.592  0.00  0.00    +0.075 A 
ATOM      5  C7  UNL     1       5.951  -5.788  35.114  0.00  0.00    +0.075 A 
ATOM      6  C8  UNL     1       6.072  -4.904  34.051  0.00  0.00    +0.264 A 
ATOM      7  O2  UNL     1       6.518  -3.726  34.116  0.00  0.00    -0.267 OA
ATOM      8  C9  UNL     1       6.310  -5.666  36.459  0.00  0.00    +0.050 A 
ATOM      9  C10 UNL     1       6.097  -6.791  37.323  0.00  0.00    +0.056 A 
ATOM     10  C11 UNL     1       5.590  -8.024  36.772  0.00  0.00    +0.056 A 
ATOM     11  C12 UNL     1       5.305  -8.109  35.370  0.00  0.00    +0.050 A 
ATOM     12  C13 UNL     1       5.340  -9.117  37.648  0.00  0.00    +0.196 A 
ATOM     13  O3  UNL     1       4.812 -10.179  37.216  0.00  0.00    -0.287 OA
ATOM     14  C14 UNL     1       5.648  -9.031  39.017  0.00  0.00    +0.033 A 
ATOM     15  C15 UNL     1       6.144  -7.824  39.555  0.00  0.00    +0.033 A 
ATOM     16  C16 UNL     1       6.332  -6.706  38.723  0.00  0.00    +0.196 A 
ATOM     17  O4  UNL     1       6.688  -5.616  39.250  0.00  0.00    -0.287 OA
ATOM     18  C17 UNL     1       6.427  -7.750  40.938  0.00  0.00    +0.012 A 
ATOM     19  C18 UNL     1       6.225  -8.854  41.766  0.00  0.00    +0.001 A 
ATOM     20  C19 UNL     1       5.735 -10.045  41.235  0.00  0.00    +0.001 A 
ATOM     21  C20 UNL     1       5.446 -10.136  39.874  0.00  0.00    +0.012 A 
ENDROOT
BRANCH   8  22
ATOM     22  N2  UNL     1       6.922  -4.451  36.913  0.00  0.00    -0.357 N 
ATOM     23  H10 UNL     1       6.599  -3.523  36.563  0.00  0.00    +0.142 HD
ATOM     24  H11 UNL     1       7.799  -4.474  37.480  0.00  0.00    +0.142 HD
ENDBRANCH   8  22
BRANCH  11  25
ATOM     25  N3  UNL     1       4.913  -9.334  34.735  0.00  0.00    -0.357 N 
ATOM     26  H12 UNL     1       4.205  -9.340  33.969  0.00  0.00    +0.142 HD
ATOM     27  H13 UNL     1       5.435 -10.220  34.918  0.00  0.00    +0.142 HD
ENDBRANCH  11  25
BRANCH   1  28
ATOM     28  C4  UNL     1       5.699  -4.897  31.559  0.00  0.00    +0.128 C 
BRANCH  28  29
ATOM     29  C3  UNL     1       6.895  -5.415  30.749  0.00  0.00    +0.021 C 
BRANCH  29  31
ATOM     30  C1  UNL     1       7.656  -6.659  28.689  0.00  0.00    +0.004 C 
ATOM     31  C2  UNL     1       6.458  -6.258  29.543  0.00  0.00    -0.002 C 
ENDBRANCH  29  31
ENDBRANCH  28  29
ENDBRANCH   1  28
TORSDOF 5
ENDMDL
MODEL 6
REMARK minimizedAffinity -5.91525984
REMARK minimizedRMSD -1
REMARK  Name = /home/tchapet/Post-Doc/ARTICLES-DOSSIERS-DES-ARTICLES-EN-REDACTION/NOUVELS-AXES-DE-RECHERCHE-A-REGARDER-URGEMMENT/ARTICLES-EN-REDACTIONS/ARTICLE_MVOTO/Paper2_JCIM/docking_rerun/ligands/18506.pdb
REMARK  6 active torsions:
REMARK  status: ('A' for Active; 'I' for Inactive)
REMARK    1  A    between atoms: C1_1  and  C2_2
REMARK    2  A    between atoms: C2_2  and  C3_3
REMARK    3  A    between atoms: C3_3  and  C4_4
REMARK    4  A    between atoms: C4_4  and  N1_5
REMARK    5  A    between atoms: C9_12  and  N2_13
REMARK    6  A    between atoms: C12_16  and  N3_17
REMARK                            x       y       z     vdW  Elec       q    Type
REMARK                         _______ _______ _______ _____ _____    ______ ____
ROOT
ATOM      1  N1  UNL     1       6.099  -5.946  37.427  0.00  0.00    -0.275 N 
ATOM      2  C5  UNL     1       5.594  -7.092  36.920  0.00  0.00    +0.264 A 
ATOM      3  O1  UNL     1       5.212  -8.061  37.631  0.00  0.00    -0.267 OA
ATOM      4  C6  UNL     1       5.532  -7.027  35.534  0.00  0.00    +0.075 A 
ATOM      5  C7  UNL     1       6.004  -5.788  35.182  0.00  0.00    +0.075 A 
ATOM      6  C8  UNL     1       6.336  -5.143  36.366  0.00  0.00    +0.264 A 
ATOM      7  O2  UNL     1       6.774  -3.965  36.467  0.00  0.00    -0.267 OA
ATOM      8  C9  UNL     1       6.003  -5.342  33.858  0.00  0.00    +0.050 A 
ATOM      9  C10 UNL     1       5.555  -6.244  32.838  0.00  0.00    +0.056 A 
ATOM     10  C11 UNL     1       5.058  -7.547  33.209  0.00  0.00    +0.056 A 
ATOM     11  C12 UNL     1       5.019  -7.922  34.592  0.00  0.00    +0.050 A 
ATOM     12  C13 UNL     1       4.660  -8.449  32.184  0.00  0.00    +0.196 A 
ATOM     13  O3  UNL     1       4.307  -9.628  32.467  0.00  0.00    -0.287 OA
ATOM     14  C14 UNL     1       4.678  -8.061  30.832  0.00  0.00    +0.033 A 
ATOM     15  C15 UNL     1       5.164  -6.786  30.470  0.00  0.00    +0.033 A 
ATOM     16  C16 UNL     1       5.631  -5.903  31.459  0.00  0.00    +0.196 A 
ATOM     17  O4  UNL     1       6.145  -4.809  31.096  0.00  0.00    -0.287 OA
ATOM     18  C17 UNL     1       5.195  -6.423  29.105  0.00  0.00    +0.012 A 
ATOM     19  C18 UNL     1       4.747  -7.306  28.122  0.00  0.00    +0.001 A 
ATOM     20  C19 UNL     1       4.268  -8.563  28.480  0.00  0.00    +0.001 A 
ATOM     21  C20 UNL     1       4.234  -8.943  29.822  0.00  0.00    +0.012 A 
ENDROOT
BRANCH   8  22
ATOM     22  N2  UNL     1       6.396  -3.992  33.575  0.00  0.00    -0.357 N 
ATOM     23  H10 UNL     1       7.189  -3.545  34.082  0.00  0.00    +0.142 HD
ATOM     24  H11 UNL     1       5.804  -3.380  32.970  0.00  0.00    +0.142 HD
ENDBRANCH   8  22
BRANCH  11  25
ATOM     25  N3  UNL     1       4.430  -9.150  35.042  0.00  0.00    -0.357 N 
ATOM     26  H12 UNL     1       4.848  -9.690  35.830  0.00  0.00    +0.142 HD
ATOM     27  H13 UNL     1       3.491  -9.449  34.696  0.00  0.00    +0.142 HD
ENDBRANCH  11  25
BRANCH   1  28
ATOM     28  C4  UNL     1       6.269  -5.604  38.842  0.00  0.00    +0.128 C 
BRANCH  28  29
ATOM     29  C3  UNL     1       4.974  -5.038  39.439  0.00  0.00    +0.021 C 
BRANCH  29  31
ATOM     30  C1  UNL     1       5.893  -5.163  41.786  0.00  0.00    +0.004 C 
ATOM     31  C2  UNL     1       4.731  -5.533  40.871  0.00  0.00    -0.002 C 
ENDBRANCH  29  31
ENDBRANCH  28  29
ENDBRANCH   1  28
TORSDOF 5
ENDMDL
MODEL 7
REMARK minimizedAffinity -5.9003377
REMARK minimizedRMSD -1
REMARK  Name = /home/tchapet/Post-Doc/ARTICLES-DOSSIERS-DES-ARTICLES-EN-REDACTION/NOUVELS-AXES-DE-RECHERCHE-A-REGARDER-URGEMMENT/ARTICLES-EN-REDACTIONS/ARTICLE_MVOTO/Paper2_JCIM/docking_rerun/ligands/18506.pdb
REMARK  6 active torsions:
REMARK  status: ('A' for Active; 'I' for Inactive)
REMARK    1  A    between atoms: C1_1  and  C2_2
REMARK    2  A    between atoms: C2_2  and  C3_3
REMARK    3  A    between atoms: C3_3  and  C4_4
REMARK    4  A    between atoms: C4_4  and  N1_5
REMARK    5  A    between atoms: C9_12  and  N2_13
REMARK    6  A    between atoms: C12_16  and  N3_17
REMARK                            x       y       z     vdW  Elec       q    Type
REMARK                         _______ _______ _______ _____ _____    ______ ____
ROOT
ATOM      1  N1  UNL     1       5.476  -7.475  39.729  0.00  0.00    -0.275 N 
ATOM      2  C5  UNL     1       5.923  -6.360  39.110  0.00  0.00    +0.264 A 
ATOM      3  O1  UNL     1       6.451  -5.389  39.716  0.00  0.00    -0.267 OA
ATOM      4  C6  UNL     1       5.745  -6.461  37.736  0.00  0.00    +0.075 A 
ATOM      5  C7  UNL     1       5.182  -7.690  37.506  0.00  0.00    +0.075 A 
ATOM      6  C8  UNL     1       5.037  -8.294  38.748  0.00  0.00    +0.264 A 
ATOM      7  O2  UNL     1       4.585  -9.452  38.958  0.00  0.00    -0.267 OA
ATOM      8  C9  UNL     1       4.943  -8.168  36.215  0.00  0.00    +0.050 A 
ATOM      9  C10 UNL     1       5.238  -7.307  35.107  0.00  0.00    +0.056 A 
ATOM     10  C11 UNL     1       5.832  -6.015  35.349  0.00  0.00    +0.056 A 
ATOM     11  C12 UNL     1       6.118  -5.608  36.694  0.00  0.00    +0.050 A 
ATOM     12  C13 UNL     1       6.077  -5.153  34.245  0.00  0.00    +0.196 A 
ATOM     13  O3  UNL     1       6.510  -3.981  34.428  0.00  0.00    -0.287 OA
ATOM     14  C14 UNL     1       5.817  -5.572  32.928  0.00  0.00    +0.033 A 
ATOM     15  C15 UNL     1       5.236  -6.837  32.692  0.00  0.00    +0.033 A 
ATOM     16  C16 UNL     1       4.918  -7.679  33.772  0.00  0.00    +0.196 A 
ATOM     17  O4  UNL     1       4.315  -8.762  33.535  0.00  0.00    -0.287 OA
ATOM     18  C17 UNL     1       4.961  -7.232  31.363  0.00  0.00    +0.012 A 
ATOM     19  C18 UNL     1       5.262  -6.390  30.293  0.00  0.00    +0.001 A 
ATOM     20  C19 UNL     1       5.835  -5.142  30.527  0.00  0.00    +0.001 A 
ATOM     21  C20 UNL     1       6.109  -4.732  31.831  0.00  0.00    +0.012 A 
ENDROOT
BRANCH   8  22
ATOM     22  N2  UNL     1       4.465  -9.510  36.043  0.00  0.00    -0.357 N 
ATOM     23  H10 UNL     1       3.756  -9.915  36.691  0.00  0.00    +0.142 HD
ATOM     24  H11 UNL     1       4.926 -10.157  35.365  0.00  0.00    +0.142 HD
ENDBRANCH   8  22
BRANCH  11  25
ATOM     25  N3  UNL     1       6.813  -4.392  37.000  0.00  0.00    -0.357 N 
ATOM     26  H12 UNL     1       6.553  -3.818  37.831  0.00  0.00    +0.142 HD
ATOM     27  H13 UNL     1       7.689  -4.135  36.491  0.00  0.00    +0.142 HD
ENDBRANCH  11  25
BRANCH   1  28
ATOM     28  C4  UNL     1       5.539  -7.776  41.161  0.00  0.00    +0.128 C 
BRANCH  28  29
ATOM     29  C3  UNL     1       6.948  -8.221  41.577  0.00  0.00    +0.021 C 
BRANCH  29  31
ATOM     30  C1  UNL     1       7.946 -10.103  40.224  0.00  0.00    +0.004 C 
ATOM     31  C2  UNL     1       7.134  -9.740  41.463  0.00  0.00    -0.002 C 
ENDBRANCH  29  31
ENDBRANCH  28  29
ENDBRANCH   1  28
TORSDOF 5
ENDMDL
MODEL 8
REMARK minimizedAffinity -5.89959431
REMARK minimizedRMSD -1
REMARK  Name = /home/tchapet/Post-Doc/ARTICLES-DOSSIERS-DES-ARTICLES-EN-REDACTION/NOUVELS-AXES-DE-RECHERCHE-A-REGARDER-URGEMMENT/ARTICLES-EN-REDACTIONS/ARTICLE_MVOTO/Paper2_JCIM/docking_rerun/ligands/18506.pdb
REMARK  6 active torsions:
REMARK  status: ('A' for Active; 'I' for Inactive)
REMARK    1  A    between atoms: C1_1  and  C2_2
REMARK    2  A    between atoms: C2_2  and  C3_3
REMARK    3  A    between atoms: C3_3  and  C4_4
REMARK    4  A    between atoms: C4_4  and  N1_5
REMARK    5  A    between atoms: C9_12  and  N2_13
REMARK    6  A    between atoms: C12_16  and  N3_17
REMARK                            x       y       z     vdW  Elec       q    Type
REMARK                         _______ _______ _______ _____ _____    ______ ____
ROOT
ATOM      1  N1  UNL     1       6.112  -5.922  37.327  0.00  0.00    -0.275 N 
ATOM      2  C5  UNL     1       6.278  -5.095  36.271  0.00  0.00    +0.264 A 
ATOM      3  O1  UNL     1       6.747  -3.929  36.364  0.00  0.00    -0.267 OA
ATOM      4  C6  UNL     1       5.891  -5.725  35.094  0.00  0.00    +0.075 A 
ATOM      5  C7  UNL     1       5.488  -6.988  35.444  0.00  0.00    +0.075 A 
ATOM      6  C8  UNL     1       5.643  -7.084  36.820  0.00  0.00    +0.264 A 
ATOM      7  O2  UNL     1       5.412  -8.106  37.521  0.00  0.00    -0.267 OA
ATOM      8  C9  UNL     1       5.112  -7.938  34.491  0.00  0.00    +0.050 A 
ATOM      9  C10 UNL     1       5.086  -7.544  33.113  0.00  0.00    +0.056 A 
ATOM     10  C11 UNL     1       5.512  -6.215  32.745  0.00  0.00    +0.056 A 
ATOM     11  C12 UNL     1       5.953  -5.306  33.763  0.00  0.00    +0.050 A 
ATOM     12  C13 UNL     1       5.438  -5.821  31.380  0.00  0.00    +0.196 A 
ATOM     13  O3  UNL     1       5.715  -4.639  31.037  0.00  0.00    -0.287 OA
ATOM     14  C14 UNL     1       5.028  -6.729  30.387  0.00  0.00    +0.033 A 
ATOM     15  C15 UNL     1       4.613  -8.029  30.747  0.00  0.00    +0.033 A 
ATOM     16  C16 UNL     1       4.608  -8.419  32.099  0.00  0.00    +0.196 A 
ATOM     17  O4  UNL     1       4.144  -9.554  32.397  0.00  0.00    -0.287 OA
ATOM     18  C17 UNL     1       4.183  -8.920  29.738  0.00  0.00    +0.012 A 
ATOM     19  C18 UNL     1       4.173  -8.528  28.399  0.00  0.00    +0.001 A 
ATOM     20  C19 UNL     1       4.582  -7.245  28.045  0.00  0.00    +0.001 A 
ATOM     21  C20 UNL     1       5.005  -6.350  29.027  0.00  0.00    +0.012 A 
ENDROOT
BRANCH   8  22
ATOM     22  N2  UNL     1       4.819  -9.277  34.915  0.00  0.00    -0.357 N 
ATOM     23  H10 UNL     1       4.297  -9.458  35.799  0.00  0.00    +0.142 HD
ATOM     24  H11 UNL     1       5.252 -10.096  34.433  0.00  0.00    +0.142 HD
ENDBRANCH   8  22
BRANCH  11  25
ATOM     25  N3  UNL     1       6.500  -4.015  33.460  0.00  0.00    -0.357 N 
ATOM     26  H12 UNL     1       6.298  -3.190  34.065  0.00  0.00    +0.142 HD
ATOM     27  H13 UNL     1       7.230  -3.905  32.721  0.00  0.00    +0.142 HD
ENDBRANCH  11  25
BRANCH   1  28
ATOM     28  C4  UNL     1       6.457  -5.649  38.725  0.00  0.00    +0.128 C 
BRANCH  28  29
ATOM     29  C3  UNL     1       5.388  -4.782  39.403  0.00  0.00    +0.021 C 
BRANCH  29  31
ATOM     30  C1  UNL     1       2.961  -5.413  39.110  0.00  0.00    +0.004 C 
ATOM     31  C2  UNL     1       4.221  -5.619  39.946  0.00  0.00    -0.002 C 
ENDBRANCH  29  31
ENDBRANCH  28  29
ENDBRANCH   1  28
TORSDOF 5
ENDMDL
MODEL 9
REMARK minimizedAffinity -5.89730024
REMARK minimizedRMSD -1
REMARK  Name = /home/tchapet/Post-Doc/ARTICLES-DOSSIERS-DES-ARTICLES-EN-REDACTION/NOUVELS-AXES-DE-RECHERCHE-A-REGARDER-URGEMMENT/ARTICLES-EN-REDACTIONS/ARTICLE_MVOTO/Paper2_JCIM/docking_rerun/ligands/18506.pdb
REMARK  6 active torsions:
REMARK  status: ('A' for Active; 'I' for Inactive)
REMARK    1  A    between atoms: C1_1  and  C2_2
REMARK    2  A    between atoms: C2_2  and  C3_3
REMARK    3  A    between atoms: C3_3  and  C4_4
REMARK    4  A    between atoms: C4_4  and  N1_5
REMARK    5  A    between atoms: C9_12  and  N2_13
REMARK    6  A    between atoms: C12_16  and  N3_17
REMARK                            x       y       z     vdW  Elec       q    Type
REMARK                         _______ _______ _______ _____ _____    ______ ____
ROOT
ATOM      1  N1  UNL     1       4.858  11.627  15.222  0.00  0.00    -0.275 N 
ATOM      2  C5  UNL     1       5.819  12.577  15.247  0.00  0.00    +0.264 A 
ATOM      3  O1  UNL     1       6.518  12.890  14.246  0.00  0.00    -0.267 OA
ATOM      4  C6  UNL     1       5.892  13.162  16.505  0.00  0.00    +0.075 A 
ATOM      5  C7  UNL     1       4.930  12.557  17.271  0.00  0.00    +0.075 A 
ATOM      6  C8  UNL     1       4.305  11.625  16.455  0.00  0.00    +0.264 A 
ATOM      7  O2  UNL     1       3.338  10.885  16.783  0.00  0.00    -0.267 OA
ATOM      8  C9  UNL     1       4.660  12.963  18.581  0.00  0.00    +0.050 A 
ATOM      9  C10 UNL     1       5.469  14.000  19.151  0.00  0.00    +0.056 A 
ATOM     10  C11 UNL     1       6.480  14.638  18.343  0.00  0.00    +0.056 A 
ATOM     11  C12 UNL     1       6.664  14.225  16.983  0.00  0.00    +0.050 A 
ATOM     12  C13 UNL     1       7.306  15.634  18.934  0.00  0.00    +0.196 A 
ATOM     13  O3  UNL     1       8.259  16.146  18.285  0.00  0.00    -0.287 OA
ATOM     14  C14 UNL     1       7.100  16.050  20.262  0.00  0.00    +0.033 A 
ATOM     15  C15 UNL     1       6.110  15.426  21.051  0.00  0.00    +0.033 A 
ATOM     16  C16 UNL     1       5.328  14.388  20.512  0.00  0.00    +0.196 A 
ATOM     17  O4  UNL     1       4.517  13.789  21.270  0.00  0.00    -0.287 OA
ATOM     18  C17 UNL     1       5.933  15.841  22.390  0.00  0.00    +0.012 A 
ATOM     19  C18 UNL     1       6.719  16.860  22.930  0.00  0.00    +0.001 A 
ATOM     20  C19 UNL     1       7.696  17.474  22.151  0.00  0.00    +0.001 A 
ATOM     21  C20 UNL     1       7.890  17.075  20.829  0.00  0.00    +0.012 A 
ENDROOT
BRANCH   8  22
ATOM     22  N2  UNL     1       3.559  12.369  19.284  0.00  0.00    -0.357 N 
ATOM     23  H10 UNL     1       3.350  11.352  19.195  0.00  0.00    +0.142 HD
ATOM     24  H11 UNL     1       2.856  12.966  19.775  0.00  0.00    +0.142 HD
ENDBRANCH   8  22
BRANCH  11  25
ATOM     25  N3  UNL     1       7.566  14.892  16.089  0.00  0.00    -0.357 N 
ATOM     26  H12 UNL     1       8.123  14.357  15.388  0.00  0.00    +0.142 HD
ATOM     27  H13 UNL     1       7.570  15.934  16.015  0.00  0.00    +0.142 HD
ENDBRANCH  11  25
BRANCH   1  28
ATOM     28  C4  UNL     1       4.438  10.827  14.069  0.00  0.00    +0.128 C 
BRANCH  28  29
ATOM     29  C3  UNL     1       3.346  11.542  13.261  0.00  0.00    +0.021 C 
BRANCH  29  31
ATOM     30  C1  UNL     1       4.668  12.324  11.259  0.00  0.00    +0.004 C 
ATOM     31  C2  UNL     1       3.558  11.400  11.748  0.00  0.00    -0.002 C 
ENDBRANCH  29  31
ENDBRANCH  28  29
ENDBRANCH   1  28
TORSDOF 5
ENDMDL
