MODEL 1
REMARK minimizedAffinity -7.7350812
REMARK minimizedRMSD -1
REMARK  Name = /home/tchapet/Post-Doc/ARTICLES-DOSSIERS-DES-ARTICLES-EN-REDACTION/NOUVELS-AXES-DE-RECHERCHE-A-REGARDER-URGEMMENT/ARTICLES-EN-REDACTIONS/ARTICLE_MVOTO/Paper2_JCIM/docking_rerun/ligands/18506.pdb
REMARK  6 active torsions:
REMARK  status: ('A' for Active; 'I' for Inactive)
REMARK    1  A    between atoms: C1_1  and  C2_2
REMARK    2  A    between atoms: C2_2  and  C3_3
REMARK    3  A    between atoms: C3_3  and  C4_4
REMARK    4  A    between atoms: C4_4  and  N1_5
REMARK    5  A    between atoms: C9_12  and  N2_13
REMARK    6  A    between atoms: C12_16  and  N3_17
REMARK                            x       y       z     vdW  Elec       q    Type
REMARK                         _______ _______ _______ _____ _____    ______ ____
ROOT
ATOM      1  N1  UNL     1      14.129  -3.568   1.867  0.00  0.00    -0.275 N 
ATOM      2  C5  UNL     1      13.943  -2.298   2.292  0.00  0.00    +0.264 A 
ATOM      3  O1  UNL     1      13.788  -1.318   1.515  0.00  0.00    -0.267 OA
ATOM      4  C6  UNL     1      13.918  -2.249   3.680  0.00  0.00    +0.075 A 
ATOM      5  C7  UNL     1      14.080  -3.538   4.118  0.00  0.00    +0.075 A 
ATOM      6  C8  UNL     1      14.198  -4.328   2.982  0.00  0.00    +0.264 A 
ATOM      7  O2  UNL     1      14.326  -5.581   2.965  0.00  0.00    -0.267 OA
ATOM      8  C9  UNL     1      14.017  -3.875   5.473  0.00  0.00    +0.050 A 
ATOM      9  C10 UNL     1      13.845  -2.820   6.428  0.00  0.00    +0.056 A 
ATOM     10  C11 UNL     1      13.674  -1.463   5.966  0.00  0.00    +0.056 A 
ATOM     11  C12 UNL     1      13.678  -1.189   4.559  0.00  0.00    +0.050 A 
ATOM     12  C13 UNL     1      13.550  -0.420   6.925  0.00  0.00    +0.196 A 
ATOM     13  O3  UNL     1      13.490   0.786   6.558  0.00  0.00    -0.287 OA
ATOM     14  C14 UNL     1      13.520  -0.704   8.302  0.00  0.00    +0.033 A 
ATOM     15  C15 UNL     1      13.688  -2.031   8.754  0.00  0.00    +0.033 A 
ATOM     16  C16 UNL     1      13.884  -3.071   7.827  0.00  0.00    +0.196 A 
ATOM     17  O4  UNL     1      14.124  -4.230   8.265  0.00  0.00    -0.287 OA
ATOM     18  C17 UNL     1      13.678  -2.294  10.142  0.00  0.00    +0.012 A 
ATOM     19  C18 UNL     1      13.499  -1.260  11.061  0.00  0.00    +0.001 A 
ATOM     20  C19 UNL     1      13.335   0.049  10.615  0.00  0.00    +0.001 A 
ATOM     21  C20 UNL     1      13.346   0.330   9.249  0.00  0.00    +0.012 A 
ENDROOT
BRANCH   8  22
ATOM     22  N2  UNL     1      14.073  -5.257   5.853  0.00  0.00    -0.357 N 
ATOM     23  H10 UNL     1      14.711  -5.923   5.367  0.00  0.00    +0.142 HD
ATOM     24  H11 UNL     1      13.370  -5.657   6.514  0.00  0.00    +0.142 HD
ENDBRANCH   8  22
BRANCH  11  25
ATOM     25  N3  UNL     1      13.396   0.112   4.026  0.00  0.00    -0.357 N 
ATOM     26  H12 UNL     1      13.906   0.473   3.191  0.00  0.00    +0.142 HD
ATOM     27  H13 UNL     1      12.574   0.660   4.364  0.00  0.00    +0.142 HD
ENDBRANCH  11  25
BRANCH   1  28
ATOM     28  C4  UNL     1      14.157  -4.040   0.480  0.00  0.00    +0.128 C 
BRANCH  28  29
ATOM     29  C3  UNL     1      12.748  -4.380  -0.022  0.00  0.00    +0.021 C 
BRANCH  29  31
ATOM     30  C1  UNL     1      12.512  -6.474  -1.411  0.00  0.00    +0.004 C 
ATOM     31  C2  UNL     1      12.473  -5.890  -0.003  0.00  0.00    -0.002 C 
ENDBRANCH  29  31
ENDBRANCH  28  29
ENDBRANCH   1  28
TORSDOF 5
ENDMDL
MODEL 2
REMARK minimizedAffinity -7.44050455
REMARK minimizedRMSD -1
REMARK  Name = /home/tchapet/Post-Doc/ARTICLES-DOSSIERS-DES-ARTICLES-EN-REDACTION/NOUVELS-AXES-DE-RECHERCHE-A-REGARDER-URGEMMENT/ARTICLES-EN-REDACTIONS/ARTICLE_MVOTO/Paper2_JCIM/docking_rerun/ligands/18506.pdb
REMARK  6 active torsions:
REMARK  status: ('A' for Active; 'I' for Inactive)
REMARK    1  A    between atoms: C1_1  and  C2_2
REMARK    2  A    between atoms: C2_2  and  C3_3
REMARK    3  A    between atoms: C3_3  and  C4_4
REMARK    4  A    between atoms: C4_4  and  N1_5
REMARK    5  A    between atoms: C9_12  and  N2_13
REMARK    6  A    between atoms: C12_16  and  N3_17
REMARK                            x       y       z     vdW  Elec       q    Type
REMARK                         _______ _______ _______ _____ _____    ______ ____
ROOT
ATOM      1  N1  UNL     1      13.809  -2.217   8.569  0.00  0.00    -0.275 N 
ATOM      2  C5  UNL     1      13.985  -3.322   7.811  0.00  0.00    +0.264 A 
ATOM      3  O1  UNL     1      14.135  -4.479   8.287  0.00  0.00    -0.267 OA
ATOM      4  C6  UNL     1      13.944  -2.996   6.460  0.00  0.00    +0.075 A 
ATOM      5  C7  UNL     1      13.720  -1.645   6.393  0.00  0.00    +0.075 A 
ATOM      6  C8  UNL     1      13.632  -1.195   7.703  0.00  0.00    +0.264 A 
ATOM      7  O2  UNL     1      13.397  -0.010   8.063  0.00  0.00    -0.267 OA
ATOM      8  C9  UNL     1      13.532  -0.984   5.177  0.00  0.00    +0.050 A 
ATOM      9  C10 UNL     1      13.648  -1.743   3.966  0.00  0.00    +0.056 A 
ATOM     10  C11 UNL     1      13.883  -3.165   4.038  0.00  0.00    +0.056 A 
ATOM     11  C12 UNL     1      13.997  -3.800   5.318  0.00  0.00    +0.050 A 
ATOM     12  C13 UNL     1      14.041  -3.899   2.829  0.00  0.00    +0.196 A 
ATOM     13  O3  UNL     1      14.338  -5.125   2.857  0.00  0.00    -0.287 OA
ATOM     14  C14 UNL     1      13.900  -3.271   1.579  0.00  0.00    +0.033 A 
ATOM     15  C15 UNL     1      13.670  -1.880   1.509  0.00  0.00    +0.033 A 
ATOM     16  C16 UNL     1      13.581  -1.120   2.689  0.00  0.00    +0.196 A 
ATOM     17  O4  UNL     1      13.468   0.133   2.592  0.00  0.00    -0.287 OA
ATOM     18  C17 UNL     1      13.554  -1.263   0.243  0.00  0.00    +0.012 A 
ATOM     19  C18 UNL     1      13.658  -2.014  -0.928  0.00  0.00    +0.001 A 
ATOM     20  C19 UNL     1      13.885  -3.386  -0.858  0.00  0.00    +0.001 A 
ATOM     21  C20 UNL     1      14.008  -4.013   0.382  0.00  0.00    +0.012 A 
ENDROOT
BRANCH   8  22
ATOM     22  N2  UNL     1      13.181   0.407   5.183  0.00  0.00    -0.357 N 
ATOM     23  H10 UNL     1      13.613   1.067   5.865  0.00  0.00    +0.142 HD
ATOM     24  H11 UNL     1      12.378   0.757   4.614  0.00  0.00    +0.142 HD
ENDBRANCH   8  22
BRANCH  11  25
ATOM     25  N3  UNL     1      14.112  -5.221   5.467  0.00  0.00    -0.357 N 
ATOM     26  H12 UNL     1      14.723  -5.638   6.203  0.00  0.00    +0.142 HD
ATOM     27  H13 UNL     1      13.474  -5.865   4.948  0.00  0.00    +0.142 HD
ENDBRANCH  11  25
BRANCH   1  28
ATOM     28  C4  UNL     1      13.733  -2.153  10.031  0.00  0.00    +0.128 C 
BRANCH  28  29
ATOM     29  C3  UNL     1      12.345  -1.693  10.497  0.00  0.00    +0.021 C 
BRANCH  29  31
ATOM     30  C1  UNL     1      13.829   0.145  11.386  0.00  0.00    +0.004 C 
ATOM     31  C2  UNL     1      12.412  -0.417  11.348  0.00  0.00    -0.002 C 
ENDBRANCH  29  31
ENDBRANCH  28  29
ENDBRANCH   1  28
TORSDOF 5
ENDMDL
MODEL 3
REMARK minimizedAffinity -7.40466452
REMARK minimizedRMSD -1
REMARK  Name = /home/tchapet/Post-Doc/ARTICLES-DOSSIERS-DES-ARTICLES-EN-REDACTION/NOUVELS-AXES-DE-RECHERCHE-A-REGARDER-URGEMMENT/ARTICLES-EN-REDACTIONS/ARTICLE_MVOTO/Paper2_JCIM/docking_rerun/ligands/18506.pdb
REMARK  6 active torsions:
REMARK  status: ('A' for Active; 'I' for Inactive)
REMARK    1  A    between atoms: C1_1  and  C2_2
REMARK    2  A    between atoms: C2_2  and  C3_3
REMARK    3  A    between atoms: C3_3  and  C4_4
REMARK    4  A    between atoms: C4_4  and  N1_5
REMARK    5  A    between atoms: C9_12  and  N2_13
REMARK    6  A    between atoms: C12_16  and  N3_17
REMARK                            x       y       z     vdW  Elec       q    Type
REMARK                         _______ _______ _______ _____ _____    ______ ____
ROOT
ATOM      1  N1  UNL     1      13.807  -2.252   8.406  0.00  0.00    -0.275 N 
ATOM      2  C5  UNL     1      13.597  -1.233   7.544  0.00  0.00    +0.264 A 
ATOM      3  O1  UNL     1      13.415  -0.039   7.905  0.00  0.00    -0.267 OA
ATOM      4  C6  UNL     1      13.644  -1.687   6.232  0.00  0.00    +0.075 A 
ATOM      5  C7  UNL     1      13.908  -3.032   6.296  0.00  0.00    +0.075 A 
ATOM      6  C8  UNL     1      14.011  -3.349   7.643  0.00  0.00    +0.264 A 
ATOM      7  O2  UNL     1      14.283  -4.485   8.116  0.00  0.00    -0.267 OA
ATOM      8  C9  UNL     1      14.111  -3.803   5.149  0.00  0.00    +0.050 A 
ATOM      9  C10 UNL     1      13.970  -3.170   3.870  0.00  0.00    +0.056 A 
ATOM     10  C11 UNL     1      13.694  -1.755   3.804  0.00  0.00    +0.056 A 
ATOM     11  C12 UNL     1      13.564  -1.002   5.017  0.00  0.00    +0.050 A 
ATOM     12  C13 UNL     1      13.511  -1.149   2.530  0.00  0.00    +0.196 A 
ATOM     13  O3  UNL     1      13.178   0.065   2.439  0.00  0.00    -0.287 OA
ATOM     14  C14 UNL     1      13.667  -1.892   1.347  0.00  0.00    +0.033 A 
ATOM     15  C15 UNL     1      13.937  -3.276   1.412  0.00  0.00    +0.033 A 
ATOM     16  C16 UNL     1      14.051  -3.913   2.660  0.00  0.00    +0.196 A 
ATOM     17  O4  UNL     1      14.200  -5.166   2.686  0.00  0.00    -0.287 OA
ATOM     18  C17 UNL     1      14.068  -4.010   0.212  0.00  0.00    +0.012 A 
ATOM     19  C18 UNL     1      13.939  -3.380  -1.026  0.00  0.00    +0.001 A 
ATOM     20  C19 UNL     1      13.672  -2.015  -1.090  0.00  0.00    +0.001 A 
ATOM     21  C20 UNL     1      13.534  -1.274   0.083  0.00  0.00    +0.012 A 
ENDROOT
BRANCH   8  22
ATOM     22  N2  UNL     1      14.503  -5.176   5.290  0.00  0.00    -0.357 N 
ATOM     23  H10 UNL     1      14.092  -5.778   6.035  0.00  0.00    +0.142 HD
ATOM     24  H11 UNL     1      15.314  -5.557   4.754  0.00  0.00    +0.142 HD
ENDBRANCH   8  22
BRANCH  11  25
ATOM     25  N3  UNL     1      13.408   0.424   5.027  0.00  0.00    -0.357 N 
ATOM     26  H12 UNL     1      12.787   0.892   5.721  0.00  0.00    +0.142 HD
ATOM     27  H13 UNL     1      14.026   1.032   4.443  0.00  0.00    +0.142 HD
ENDBRANCH  11  25
BRANCH   1  28
ATOM     28  C4  UNL     1      13.889  -2.171   9.867  0.00  0.00    +0.128 C 
BRANCH  28  29
ATOM     29  C3  UNL     1      12.514  -1.896  10.488  0.00  0.00    +0.021 C 
BRANCH  29  31
ATOM     30  C1  UNL     1      13.803   0.075  11.394  0.00  0.00    +0.004 C 
ATOM     31  C2  UNL     1      12.418  -0.486  11.087  0.00  0.00    -0.002 C 
ENDBRANCH  29  31
ENDBRANCH  28  29
ENDBRANCH   1  28
TORSDOF 5
ENDMDL
MODEL 4
REMARK minimizedAffinity -7.38090611
REMARK minimizedRMSD -1
REMARK  Name = /home/tchapet/Post-Doc/ARTICLES-DOSSIERS-DES-ARTICLES-EN-REDACTION/NOUVELS-AXES-DE-RECHERCHE-A-REGARDER-URGEMMENT/ARTICLES-EN-REDACTIONS/ARTICLE_MVOTO/Paper2_JCIM/docking_rerun/ligands/18506.pdb
REMARK  6 active torsions:
REMARK  status: ('A' for Active; 'I' for Inactive)
REMARK    1  A    between atoms: C1_1  and  C2_2
REMARK    2  A    between atoms: C2_2  and  C3_3
REMARK    3  A    between atoms: C3_3  and  C4_4
REMARK    4  A    between atoms: C4_4  and  N1_5
REMARK    5  A    between atoms: C9_12  and  N2_13
REMARK    6  A    between atoms: C12_16  and  N3_17
REMARK                            x       y       z     vdW  Elec       q    Type
REMARK                         _______ _______ _______ _____ _____    ______ ____
ROOT
ATOM      1  N1  UNL     1      14.218  -2.390   8.329  0.00  0.00    -0.275 N 
ATOM      2  C5  UNL     1      13.718  -1.968   7.146  0.00  0.00    +0.264 A 
ATOM      3  O1  UNL     1      13.024  -0.925   7.014  0.00  0.00    -0.267 OA
ATOM      4  C6  UNL     1      14.105  -2.823   6.122  0.00  0.00    +0.075 A 
ATOM      5  C7  UNL     1      14.882  -3.794   6.698  0.00  0.00    +0.075 A 
ATOM      6  C8  UNL     1      14.942  -3.497   8.053  0.00  0.00    +0.264 A 
ATOM      7  O2  UNL     1      15.593  -4.138   8.922  0.00  0.00    -0.267 OA
ATOM      8  C9  UNL     1      15.520  -4.781   5.942  0.00  0.00    +0.050 A 
ATOM      9  C10 UNL     1      15.289  -4.808   4.527  0.00  0.00    +0.056 A 
ATOM     10  C11 UNL     1      14.472  -3.785   3.921  0.00  0.00    +0.056 A 
ATOM     11  C12 UNL     1      13.901  -2.757   4.741  0.00  0.00    +0.050 A 
ATOM     12  C13 UNL     1      14.214  -3.848   2.523  0.00  0.00    +0.196 A 
ATOM     13  O3  UNL     1      13.430  -3.024   1.977  0.00  0.00    -0.287 OA
ATOM     14  C14 UNL     1      14.800  -4.846   1.725  0.00  0.00    +0.033 A 
ATOM     15  C15 UNL     1      15.600  -5.846   2.318  0.00  0.00    +0.033 A 
ATOM     16  C16 UNL     1      15.812  -5.847   3.709  0.00  0.00    +0.196 A 
ATOM     17  O4  UNL     1      16.453  -6.805   4.221  0.00  0.00    -0.287 OA
ATOM     18  C17 UNL     1      16.163  -6.854   1.503  0.00  0.00    +0.012 A 
ATOM     19  C18 UNL     1      15.940  -6.862   0.126  0.00  0.00    +0.001 A 
ATOM     20  C19 UNL     1      15.150  -5.876  -0.459  0.00  0.00    +0.001 A 
ATOM     21  C20 UNL     1      14.582  -4.876   0.330  0.00  0.00    +0.012 A 
ENDROOT
BRANCH   8  22
ATOM     22  N2  UNL     1      16.415  -5.692   6.594  0.00  0.00    -0.357 N 
ATOM     23  H10 UNL     1      16.198  -6.077   7.538  0.00  0.00    +0.142 HD
ATOM     24  H11 UNL     1      17.370  -5.869   6.209  0.00  0.00    +0.142 HD
ENDBRANCH   8  22
BRANCH  11  25
ATOM     25  N3  UNL     1      13.178  -1.645   4.193  0.00  0.00    -0.357 N 
ATOM     26  H12 UNL     1      12.341  -1.256   4.678  0.00  0.00    +0.142 HD
ATOM     27  H13 UNL     1      13.561  -1.107   3.383  0.00  0.00    +0.142 HD
ENDBRANCH  11  25
BRANCH   1  28
ATOM     28  C4  UNL     1      14.083  -1.731   9.630  0.00  0.00    +0.128 C 
BRANCH  28  29
ATOM     29  C3  UNL     1      14.631  -0.298   9.590  0.00  0.00    +0.021 C 
BRANCH  29  31
ATOM     30  C1  UNL     1      13.049  -0.153  11.552  0.00  0.00    +0.004 C 
ATOM     31  C2  UNL     1      14.201   0.522  10.814  0.00  0.00    -0.002 C 
ENDBRANCH  29  31
ENDBRANCH  28  29
ENDBRANCH   1  28
TORSDOF 5
ENDMDL
MODEL 5
REMARK minimizedAffinity -6.93497467
REMARK minimizedRMSD -1
REMARK  Name = /home/tchapet/Post-Doc/ARTICLES-DOSSIERS-DES-ARTICLES-EN-REDACTION/NOUVELS-AXES-DE-RECHERCHE-A-REGARDER-URGEMMENT/ARTICLES-EN-REDACTIONS/ARTICLE_MVOTO/Paper2_JCIM/docking_rerun/ligands/18506.pdb
REMARK  6 active torsions:
REMARK  status: ('A' for Active; 'I' for Inactive)
REMARK    1  A    between atoms: C1_1  and  C2_2
REMARK    2  A    between atoms: C2_2  and  C3_3
REMARK    3  A    between atoms: C3_3  and  C4_4
REMARK    4  A    between atoms: C4_4  and  N1_5
REMARK    5  A    between atoms: C9_12  and  N2_13
REMARK    6  A    between atoms: C12_16  and  N3_17
REMARK                            x       y       z     vdW  Elec       q    Type
REMARK                         _______ _______ _______ _____ _____    ______ ____
ROOT
ATOM      1  N1  UNL     1      13.723  -1.141   0.728  0.00  0.00    -0.275 N 
ATOM      2  C5  UNL     1      13.474  -0.311   1.765  0.00  0.00    +0.264 A 
ATOM      3  O1  UNL     1      13.133   0.895   1.627  0.00  0.00    -0.267 OA
ATOM      4  C6  UNL     1      13.618  -0.983   2.972  0.00  0.00    +0.075 A 
ATOM      5  C7  UNL     1      13.952  -2.276   2.659  0.00  0.00    +0.075 A 
ATOM      6  C8  UNL     1      14.001  -2.346   1.274  0.00  0.00    +0.264 A 
ATOM      7  O2  UNL     1      14.242  -3.379   0.595  0.00  0.00    -0.267 OA
ATOM      8  C9  UNL     1      14.089  -3.264   3.638  0.00  0.00    +0.050 A 
ATOM      9  C10 UNL     1      13.940  -2.884   5.012  0.00  0.00    +0.056 A 
ATOM     10  C11 UNL     1      13.587  -1.524   5.340  0.00  0.00    +0.056 A 
ATOM     11  C12 UNL     1      13.391  -0.571   4.288  0.00  0.00    +0.050 A 
ATOM     12  C13 UNL     1      13.487  -1.150   6.709  0.00  0.00    +0.196 A 
ATOM     13  O3  UNL     1      13.270   0.050   7.032  0.00  0.00    -0.287 OA
ATOM     14  C14 UNL     1      13.656  -2.100   7.732  0.00  0.00    +0.033 A 
ATOM     15  C15 UNL     1      14.000  -3.431   7.411  0.00  0.00    +0.033 A 
ATOM     16  C16 UNL     1      14.176  -3.809   6.067  0.00  0.00    +0.196 A 
ATOM     17  O4  UNL     1      14.575  -4.980   5.818  0.00  0.00    -0.287 OA
ATOM     18  C17 UNL     1      14.188  -4.366   8.454  0.00  0.00    +0.012 A 
ATOM     19  C18 UNL     1      14.029  -3.987   9.787  0.00  0.00    +0.001 A 
ATOM     20  C19 UNL     1      13.689  -2.674  10.103  0.00  0.00    +0.001 A 
ATOM     21  C20 UNL     1      13.505  -1.735   9.088  0.00  0.00    +0.012 A 
ENDROOT
BRANCH   8  22
ATOM     22  N2  UNL     1      14.321  -4.621   3.233  0.00  0.00    -0.357 N 
ATOM     23  H10 UNL     1      14.953  -4.844   2.435  0.00  0.00    +0.142 HD
ATOM     24  H11 UNL     1      13.746  -5.400   3.626  0.00  0.00    +0.142 HD
ENDBRANCH   8  22
BRANCH  11  25
ATOM     25  N3  UNL     1      12.925   0.763   4.532  0.00  0.00    -0.357 N 
ATOM     26  H12 UNL     1      13.291   1.570   3.983  0.00  0.00    +0.142 HD
ATOM     27  H13 UNL     1      12.104   0.935   5.155  0.00  0.00    +0.142 HD
ENDBRANCH  11  25
BRANCH   1  28
ATOM     28  C4  UNL     1      13.623  -0.826  -0.700  0.00  0.00    +0.128 C 
BRANCH  28  29
ATOM     29  C3  UNL     1      12.160  -0.653  -1.131  0.00  0.00    +0.021 C 
BRANCH  29  31
ATOM     30  C1  UNL     1      10.183  -1.542   0.161  0.00  0.00    +0.004 C 
ATOM     31  C2  UNL     1      11.310  -1.889  -0.806  0.00  0.00    -0.002 C 
ENDBRANCH  29  31
ENDBRANCH  28  29
ENDBRANCH   1  28
TORSDOF 5
ENDMDL
MODEL 6
REMARK minimizedAffinity -6.60931873
REMARK minimizedRMSD -1
REMARK  Name = /home/tchapet/Post-Doc/ARTICLES-DOSSIERS-DES-ARTICLES-EN-REDACTION/NOUVELS-AXES-DE-RECHERCHE-A-REGARDER-URGEMMENT/ARTICLES-EN-REDACTIONS/ARTICLE_MVOTO/Paper2_JCIM/docking_rerun/ligands/18506.pdb
REMARK  6 active torsions:
REMARK  status: ('A' for Active; 'I' for Inactive)
REMARK    1  A    between atoms: C1_1  and  C2_2
REMARK    2  A    between atoms: C2_2  and  C3_3
REMARK    3  A    between atoms: C3_3  and  C4_4
REMARK    4  A    between atoms: C4_4  and  N1_5
REMARK    5  A    between atoms: C9_12  and  N2_13
REMARK    6  A    between atoms: C12_16  and  N3_17
REMARK                            x       y       z     vdW  Elec       q    Type
REMARK                         _______ _______ _______ _____ _____    ______ ____
ROOT
ATOM      1  N1  UNL     1      -1.661 -14.270  19.081  0.00  0.00    -0.275 N 
ATOM      2  C5  UNL     1      -0.507 -14.524  19.736  0.00  0.00    +0.264 A 
ATOM      3  O1  UNL     1       0.629 -14.485  19.191  0.00  0.00    -0.267 OA
ATOM      4  C6  UNL     1      -0.757 -14.795  21.076  0.00  0.00    +0.075 A 
ATOM      5  C7  UNL     1      -2.114 -14.688  21.247  0.00  0.00    +0.075 A 
ATOM      6  C8  UNL     1      -2.642 -14.356  20.007  0.00  0.00    +0.264 A 
ATOM      7  O2  UNL     1      -3.857 -14.134  19.756  0.00  0.00    -0.267 OA
ATOM      8  C9  UNL     1      -2.716 -14.812  22.502  0.00  0.00    +0.050 A 
ATOM      9  C10 UNL     1      -1.884 -15.129  23.625  0.00  0.00    +0.056 A 
ATOM     10  C11 UNL     1      -0.457 -15.240  23.445  0.00  0.00    +0.056 A 
ATOM     11  C12 UNL     1       0.110 -15.033  22.145  0.00  0.00    +0.050 A 
ATOM     12  C13 UNL     1       0.352 -15.599  24.559  0.00  0.00    +0.196 A 
ATOM     13  O3  UNL     1       1.591 -15.795  24.417  0.00  0.00    -0.287 OA
ATOM     14  C14 UNL     1      -0.212 -15.774  25.835  0.00  0.00    +0.033 A 
ATOM     15  C15 UNL     1      -1.608 -15.664  26.012  0.00  0.00    +0.033 A 
ATOM     16  C16 UNL     1      -2.437 -15.380  24.911  0.00  0.00    +0.196 A 
ATOM     17  O4  UNL     1      -3.688 -15.381  25.083  0.00  0.00    -0.287 OA
ATOM     18  C17 UNL     1      -2.159 -15.865  27.297  0.00  0.00    +0.012 A 
ATOM     19  C18 UNL     1      -1.338 -16.162  28.385  0.00  0.00    +0.001 A 
ATOM     20  C19 UNL     1       0.039 -16.271  28.211  0.00  0.00    +0.001 A 
ATOM     21  C20 UNL     1       0.602 -16.081  26.948  0.00  0.00    +0.012 A 
ENDROOT
BRANCH   8  22
ATOM     22  N2  UNL     1      -4.124 -14.568  22.629  0.00  0.00    -0.357 N 
ATOM     23  H10 UNL     1      -4.793 -14.891  21.899  0.00  0.00    +0.142 HD
ATOM     24  H11 UNL     1      -4.490 -13.932  23.372  0.00  0.00    +0.142 HD
ENDBRANCH   8  22
BRANCH  11  25
ATOM     25  N3  UNL     1       1.526 -15.011  21.915  0.00  0.00    -0.357 N 
ATOM     26  H12 UNL     1       1.937 -15.420  21.048  0.00  0.00    +0.142 HD
ATOM     27  H13 UNL     1       2.158 -14.454  22.533  0.00  0.00    +0.142 HD
ENDBRANCH  11  25
BRANCH   1  28
ATOM     28  C4  UNL     1      -1.812 -13.888  17.674  0.00  0.00    +0.128 C 
BRANCH  28  29
ATOM     29  C3  UNL     1      -2.061 -12.381  17.529  0.00  0.00    +0.021 C 
BRANCH  29  31
ATOM     30  C1  UNL     1      -1.006 -10.126  17.938  0.00  0.00    +0.004 C 
ATOM     31  C2  UNL     1      -0.756 -11.574  17.533  0.00  0.00    -0.002 C 
ENDBRANCH  29  31
ENDBRANCH  28  29
ENDBRANCH   1  28
TORSDOF 5
ENDMDL
MODEL 7
REMARK minimizedAffinity -6.5254488
REMARK minimizedRMSD -1
REMARK  Name = /home/tchapet/Post-Doc/ARTICLES-DOSSIERS-DES-ARTICLES-EN-REDACTION/NOUVELS-AXES-DE-RECHERCHE-A-REGARDER-URGEMMENT/ARTICLES-EN-REDACTIONS/ARTICLE_MVOTO/Paper2_JCIM/docking_rerun/ligands/18506.pdb
REMARK  6 active torsions:
REMARK  status: ('A' for Active; 'I' for Inactive)
REMARK    1  A    between atoms: C1_1  and  C2_2
REMARK    2  A    between atoms: C2_2  and  C3_3
REMARK    3  A    between atoms: C3_3  and  C4_4
REMARK    4  A    between atoms: C4_4  and  N1_5
REMARK    5  A    between atoms: C9_12  and  N2_13
REMARK    6  A    between atoms: C12_16  and  N3_17
REMARK                            x       y       z     vdW  Elec       q    Type
REMARK                         _______ _______ _______ _____ _____    ______ ____
ROOT
ATOM      1  N1  UNL     1      -1.583 -13.812  18.265  0.00  0.00    -0.275 N 
ATOM      2  C5  UNL     1      -2.718 -14.053  18.959  0.00  0.00    +0.264 A 
ATOM      3  O1  UNL     1      -3.868 -14.032  18.444  0.00  0.00    -0.267 OA
ATOM      4  C6  UNL     1      -2.424 -14.351  20.284  0.00  0.00    +0.075 A 
ATOM      5  C7  UNL     1      -1.059 -14.305  20.399  0.00  0.00    +0.075 A 
ATOM      6  C8  UNL     1      -0.568 -13.981  19.141  0.00  0.00    +0.264 A 
ATOM      7  O2  UNL     1       0.648 -13.877  18.827  0.00  0.00    -0.267 OA
ATOM      8  C9  UNL     1      -0.402 -14.642  21.586  0.00  0.00    +0.050 A 
ATOM      9  C10 UNL     1      -1.198 -14.978  22.730  0.00  0.00    +0.056 A 
ATOM     10  C11 UNL     1      -2.635 -15.027  22.608  0.00  0.00    +0.056 A 
ATOM     11  C12 UNL     1      -3.247 -14.739  21.344  0.00  0.00    +0.050 A 
ATOM     12  C13 UNL     1      -3.414 -15.318  23.761  0.00  0.00    +0.196 A 
ATOM     13  O3  UNL     1      -4.675 -15.279  23.711  0.00  0.00    -0.287 OA
ATOM     14  C14 UNL     1      -2.801 -15.625  24.989  0.00  0.00    +0.033 A 
ATOM     15  C15 UNL     1      -1.396 -15.577  25.109  0.00  0.00    +0.033 A 
ATOM     16  C16 UNL     1      -0.606 -15.222  24.000  0.00  0.00    +0.196 A 
ATOM     17  O4  UNL     1       0.639 -15.097  24.163  0.00  0.00    -0.287 OA
ATOM     18  C17 UNL     1      -0.799 -15.867  26.356  0.00  0.00    +0.012 A 
ATOM     19  C18 UNL     1      -1.584 -16.203  27.460  0.00  0.00    +0.001 A 
ATOM     20  C19 UNL     1      -2.970 -16.249  27.342  0.00  0.00    +0.001 A 
ATOM     21  C20 UNL     1      -3.578 -15.962  26.120  0.00  0.00    +0.012 A 
ENDROOT
BRANCH   8  22
ATOM     22  N2  UNL     1       1.031 -14.690  21.602  0.00  0.00    -0.357 N 
ATOM     23  H10 UNL     1       1.599 -13.982  21.091  0.00  0.00    +0.142 HD
ATOM     24  H11 UNL     1       1.533 -15.518  21.996  0.00  0.00    +0.142 HD
ENDBRANCH   8  22
BRANCH  11  25
ATOM     25  N3  UNL     1      -4.656 -14.883  21.119  0.00  0.00    -0.357 N 
ATOM     26  H12 UNL     1      -5.177 -14.211  20.515  0.00  0.00    +0.142 HD
ATOM     27  H13 UNL     1      -5.160 -15.745  21.427  0.00  0.00    +0.142 HD
ENDBRANCH  11  25
BRANCH   1  28
ATOM     28  C4  UNL     1      -1.468 -13.519  16.834  0.00  0.00    +0.128 C 
BRANCH  28  29
ATOM     29  C3  UNL     1      -1.708 -12.031  16.548  0.00  0.00    +0.021 C 
BRANCH  29  31
ATOM     30  C1  UNL     1      -0.844 -10.210  18.067  0.00  0.00    +0.004 C 
ATOM     31  C2  UNL     1      -0.500 -11.165  16.929  0.00  0.00    -0.002 C 
ENDBRANCH  29  31
ENDBRANCH  28  29
ENDBRANCH   1  28
TORSDOF 5
ENDMDL
MODEL 8
REMARK minimizedAffinity -6.42779875
REMARK minimizedRMSD -1
REMARK  Name = /home/tchapet/Post-Doc/ARTICLES-DOSSIERS-DES-ARTICLES-EN-REDACTION/NOUVELS-AXES-DE-RECHERCHE-A-REGARDER-URGEMMENT/ARTICLES-EN-REDACTIONS/ARTICLE_MVOTO/Paper2_JCIM/docking_rerun/ligands/18506.pdb
REMARK  6 active torsions:
REMARK  status: ('A' for Active; 'I' for Inactive)
REMARK    1  A    between atoms: C1_1  and  C2_2
REMARK    2  A    between atoms: C2_2  and  C3_3
REMARK    3  A    between atoms: C3_3  and  C4_4
REMARK    4  A    between atoms: C4_4  and  N1_5
REMARK    5  A    between atoms: C9_12  and  N2_13
REMARK    6  A    between atoms: C12_16  and  N3_17
REMARK                            x       y       z     vdW  Elec       q    Type
REMARK                         _______ _______ _______ _____ _____    ______ ____
ROOT
ATOM      1  N1  UNL     1      13.431  -1.079   6.650  0.00  0.00    -0.275 N 
ATOM      2  C5  UNL     1      13.659  -2.409   6.571  0.00  0.00    +0.264 A 
ATOM      3  O1  UNL     1      13.613  -3.184   7.564  0.00  0.00    -0.267 OA
ATOM      4  C6  UNL     1      13.912  -2.783   5.258  0.00  0.00    +0.075 A 
ATOM      5  C7  UNL     1      13.821  -1.641   4.504  0.00  0.00    +0.075 A 
ATOM      6  C8  UNL     1      13.516  -0.612   5.384  0.00  0.00    +0.264 A 
ATOM      7  O2  UNL     1      13.315   0.592   5.071  0.00  0.00    -0.267 OA
ATOM      8  C9  UNL     1      13.933  -1.660   3.111  0.00  0.00    +0.050 A 
ATOM      9  C10 UNL     1      14.221  -2.910   2.470  0.00  0.00    +0.056 A 
ATOM     10  C11 UNL     1      14.316  -4.111   3.264  0.00  0.00    +0.056 A 
ATOM     11  C12 UNL     1      14.122  -4.039   4.682  0.00  0.00    +0.050 A 
ATOM     12  C13 UNL     1      14.646  -5.336   2.621  0.00  0.00    +0.196 A 
ATOM     13  O3  UNL     1      14.827  -6.387   3.296  0.00  0.00    -0.287 OA
ATOM     14  C14 UNL     1      14.809  -5.400   1.225  0.00  0.00    +0.033 A 
ATOM     15  C15 UNL     1      14.716  -4.224   0.449  0.00  0.00    +0.033 A 
ATOM     16  C16 UNL     1      14.461  -2.988   1.070  0.00  0.00    +0.196 A 
ATOM     17  O4  UNL     1      14.476  -1.944   0.362  0.00  0.00    -0.287 OA
ATOM     18  C17 UNL     1      14.904  -4.304  -0.949  0.00  0.00    +0.012 A 
ATOM     19  C18 UNL     1      15.173  -5.528  -1.562  0.00  0.00    +0.001 A 
ATOM     20  C19 UNL     1      15.265  -6.687  -0.796  0.00  0.00    +0.001 A 
ATOM     21  C20 UNL     1      15.087  -6.628   0.586  0.00  0.00    +0.012 A 
ENDROOT
BRANCH   8  22
ATOM     22  N2  UNL     1      13.707  -0.450   2.375  0.00  0.00    -0.357 N 
ATOM     23  H10 UNL     1      14.051   0.468   2.730  0.00  0.00    +0.142 HD
ATOM     24  H11 UNL     1      13.065  -0.439   1.551  0.00  0.00    +0.142 HD
ENDBRANCH   8  22
BRANCH  11  25
ATOM     25  N3  UNL     1      14.084  -5.206   5.516  0.00  0.00    -0.357 N 
ATOM     26  H12 UNL     1      14.500  -5.197   6.472  0.00  0.00    +0.142 HD
ATOM     27  H13 UNL     1      13.508  -6.035   5.247  0.00  0.00    +0.142 HD
ENDBRANCH  11  25
BRANCH   1  28
ATOM     28  C4  UNL     1      13.074  -0.313   7.846  0.00  0.00    +0.128 C 
BRANCH  28  29
ATOM     29  C3  UNL     1      14.323   0.122   8.624  0.00  0.00    +0.021 C 
BRANCH  29  31
ATOM     30  C1  UNL     1      14.004  -1.107  10.805  0.00  0.00    +0.004 C 
ATOM     31  C2  UNL     1      14.052   0.259  10.128  0.00  0.00    -0.002 C 
ENDBRANCH  29  31
ENDBRANCH  28  29
ENDBRANCH   1  28
TORSDOF 5
ENDMDL
MODEL 9
REMARK minimizedAffinity -6.33925915
REMARK minimizedRMSD -1
REMARK  Name = /home/tchapet/Post-Doc/ARTICLES-DOSSIERS-DES-ARTICLES-EN-REDACTION/NOUVELS-AXES-DE-RECHERCHE-A-REGARDER-URGEMMENT/ARTICLES-EN-REDACTIONS/ARTICLE_MVOTO/Paper2_JCIM/docking_rerun/ligands/18506.pdb
REMARK  6 active torsions:
REMARK  status: ('A' for Active; 'I' for Inactive)
REMARK    1  A    between atoms: C1_1  and  C2_2
REMARK    2  A    between atoms: C2_2  and  C3_3
REMARK    3  A    between atoms: C3_3  and  C4_4
REMARK    4  A    between atoms: C4_4  and  N1_5
REMARK    5  A    between atoms: C9_12  and  N2_13
REMARK    6  A    between atoms: C12_16  and  N3_17
REMARK                            x       y       z     vdW  Elec       q    Type
REMARK                         _______ _______ _______ _____ _____    ______ ____
ROOT
ATOM      1  N1  UNL     1       6.367  -2.773   0.118  0.00  0.00    -0.275 N 
ATOM      2  C5  UNL     1       5.864  -3.836   0.784  0.00  0.00    +0.264 A 
ATOM      3  O1  UNL     1       6.545  -4.849   1.097  0.00  0.00    -0.267 OA
ATOM      4  C6  UNL     1       4.525  -3.630   1.090  0.00  0.00    +0.075 A 
ATOM      5  C7  UNL     1       4.202  -2.388   0.606  0.00  0.00    +0.075 A 
ATOM      6  C8  UNL     1       5.355  -1.882   0.022  0.00  0.00    +0.264 A 
ATOM      7  O2  UNL     1       5.476  -0.744  -0.507  0.00  0.00    -0.267 OA
ATOM      8  C9  UNL     1       2.946  -1.813   0.816  0.00  0.00    +0.050 A 
ATOM      9  C10 UNL     1       1.951  -2.586   1.501  0.00  0.00    +0.056 A 
ATOM     10  C11 UNL     1       2.292  -3.892   2.012  0.00  0.00    +0.056 A 
ATOM     11  C12 UNL     1       3.620  -4.400   1.826  0.00  0.00    +0.050 A 
ATOM     12  C13 UNL     1       1.284  -4.666   2.650  0.00  0.00    +0.196 A 
ATOM     13  O3  UNL     1       1.523  -5.847   3.025  0.00  0.00    -0.287 OA
ATOM     14  C14 UNL     1      -0.008  -4.147   2.850  0.00  0.00    +0.033 A 
ATOM     15  C15 UNL     1      -0.341  -2.869   2.351  0.00  0.00    +0.033 A 
ATOM     16  C16 UNL     1       0.619  -2.113   1.653  0.00  0.00    +0.196 A 
ATOM     17  O4  UNL     1       0.264  -1.017   1.139  0.00  0.00    -0.287 OA
ATOM     18  C17 UNL     1      -1.650  -2.374   2.542  0.00  0.00    +0.012 A 
ATOM     19  C18 UNL     1      -2.606  -3.131   3.220  0.00  0.00    +0.001 A 
ATOM     20  C19 UNL     1      -2.277  -4.391   3.711  0.00  0.00    +0.001 A 
ATOM     21  C20 UNL     1      -0.992  -4.900   3.529  0.00  0.00    +0.012 A 
ENDROOT
BRANCH   8  22
ATOM     22  N2  UNL     1       2.714  -0.464   0.389  0.00  0.00    -0.357 N 
ATOM     23  H10 UNL     1       3.102  -0.111  -0.512  0.00  0.00    +0.142 HD
ATOM     24  H11 UNL     1       2.287   0.235   1.037  0.00  0.00    +0.142 HD
ENDBRANCH   8  22
BRANCH  11  25
ATOM     25  N3  UNL     1       4.062  -5.634   2.407  0.00  0.00    -0.357 N 
ATOM     26  H12 UNL     1       4.707  -6.271   1.891  0.00  0.00    +0.142 HD
ATOM     27  H13 UNL     1       3.872  -5.849   3.411  0.00  0.00    +0.142 HD
ENDBRANCH  11  25
BRANCH   1  28
ATOM     28  C4  UNL     1       7.749  -2.583  -0.328  0.00  0.00    +0.128 C 
BRANCH  28  29
ATOM     29  C3  UNL     1       8.679  -2.275   0.853  0.00  0.00    +0.021 C 
BRANCH  29  31
ATOM     30  C1  UNL     1      10.222  -0.299   1.145  0.00  0.00    +0.004 C 
ATOM     31  C2  UNL     1       8.771  -0.771   1.143  0.00  0.00    -0.002 C 
ENDBRANCH  29  31
ENDBRANCH  28  29
ENDBRANCH   1  28
TORSDOF 5
ENDMDL
