MODEL 1
REMARK minimizedAffinity -6.13087559
REMARK minimizedRMSD -1
REMARK  Name = /home/tchapet/Post-Doc/ARTICLES-DOSSIERS-DES-ARTICLES-EN-REDACTION/NOUVELS-AXES-DE-RECHERCHE-A-REGARDER-URGEMMENT/ARTICLES-EN-REDACTIONS/ARTICLE_MVOTO/Paper2_JCIM/docking_rerun/ligands/20549.pdb
REMARK  8 active torsions:
REMARK  status: ('A' for Active; 'I' for Inactive)
REMARK    1  A    between atoms: O1_1  and  C1_2
REMARK    2  A    between atoms: C1_2  and  C2_3
REMARK    3  A    between atoms: C2_3  and  N1_4
REMARK    4  A    between atoms: N1_4  and  C3_5
REMARK    5  A    between atoms: C6_8  and  N2_21
REMARK    6  A    between atoms: N2_21  and  C17_22
REMARK    7  A    between atoms: C17_22  and  C18_23
REMARK    8  A    between atoms: C18_23  and  O4_24
REMARK                            x       y       z     vdW  Elec       q    Type
REMARK                         _______ _______ _______ _____ _____    ______ ____
ROOT
ATOM      1  C3  UNL     1       7.748  15.036  17.656  0.00  0.00    +0.039 A 
ATOM      2  C4  UNL     1       7.648  14.084  16.636  0.00  0.00    +0.025 A 
ATOM      3  C5  UNL     1       6.767  13.016  16.741  0.00  0.00    +0.025 A 
ATOM      4  C6  UNL     1       5.955  12.864  17.870  0.00  0.00    +0.039 A 
ATOM      5  C7  UNL     1       6.070  13.785  18.945  0.00  0.00    +0.056 A 
ATOM      6  C8  UNL     1       6.973  14.879  18.838  0.00  0.00    +0.056 A 
ATOM      7  C9  UNL     1       7.115  15.813  19.996  0.00  0.00    +0.196 C 
ATOM      8  O2  UNL     1       8.092  16.605  20.071  0.00  0.00    -0.287 OA
ATOM      9  C10 UNL     1       6.133  15.780  21.101  0.00  0.00    +0.033 A 
ATOM     10  C11 UNL     1       5.239  14.700  21.205  0.00  0.00    +0.033 A 
ATOM     11  C12 UNL     1       5.291  13.612  20.208  0.00  0.00    +0.196 C 
ATOM     12  O3  UNL     1       4.709  12.522  20.462  0.00  0.00    -0.287 OA
ATOM     13  C13 UNL     1       4.325  14.656  22.274  0.00  0.00    +0.012 A 
ATOM     14  C14 UNL     1       4.299  15.680  23.223  0.00  0.00    +0.001 A 
ATOM     15  C15 UNL     1       5.186  16.752  23.119  0.00  0.00    +0.001 A 
ATOM     16  C16 UNL     1       6.102  16.804  22.067  0.00  0.00    +0.012 A 
ENDROOT
BRANCH   1  17
ATOM     17  N1  UNL     1       8.581  16.193  17.455  0.00  0.00    -0.341 N 
ATOM     18  H6  UNL     1       9.514  16.231  17.924  0.00  0.00    +0.146 HD
BRANCH  17  19
ATOM     19  C2  UNL     1       8.182  17.341  16.638  0.00  0.00    +0.129 C 
BRANCH  19  20
ATOM     20  C1  UNL     1       8.761  17.241  15.224  0.00  0.00    +0.174 C 
BRANCH  20  21
ATOM     21  O1  UNL     1       9.901  16.425  15.210  0.00  0.00    -0.393 OA
ATOM     22  H1  UNL     1      10.634  16.955  15.618  0.00  0.00    +0.209 HD
ENDBRANCH  20  21
ENDBRANCH  19  20
ENDBRANCH  17  19
ENDBRANCH   1  17
BRANCH   4  23
ATOM     23  N2  UNL     1       4.971  11.815  17.885  0.00  0.00    -0.341 N 
ATOM     24  H13 UNL     1       4.996  11.108  18.653  0.00  0.00    +0.146 HD
BRANCH  23  25
ATOM     25  C17 UNL     1       3.928  11.684  16.866  0.00  0.00    +0.129 C 
BRANCH  25  26
ATOM     26  C18 UNL     1       2.659  12.425  17.294  0.00  0.00    +0.174 C 
BRANCH  26  27
ATOM     27  O4  UNL     1       2.398  12.198  18.652  0.00  0.00    -0.393 OA
ATOM     28  H18 UNL     1       3.039  12.761  19.161  0.00  0.00    +0.209 HD
ENDBRANCH  26  27
ENDBRANCH  25  26
ENDBRANCH  23  25
ENDBRANCH   4  23
TORSDOF 8
ENDMDL
MODEL 2
REMARK minimizedAffinity -5.98670626
REMARK minimizedRMSD -1
REMARK  Name = /home/tchapet/Post-Doc/ARTICLES-DOSSIERS-DES-ARTICLES-EN-REDACTION/NOUVELS-AXES-DE-RECHERCHE-A-REGARDER-URGEMMENT/ARTICLES-EN-REDACTIONS/ARTICLE_MVOTO/Paper2_JCIM/docking_rerun/ligands/20549.pdb
REMARK  8 active torsions:
REMARK  status: ('A' for Active; 'I' for Inactive)
REMARK    1  A    between atoms: O1_1  and  C1_2
REMARK    2  A    between atoms: C1_2  and  C2_3
REMARK    3  A    between atoms: C2_3  and  N1_4
REMARK    4  A    between atoms: N1_4  and  C3_5
REMARK    5  A    between atoms: C6_8  and  N2_21
REMARK    6  A    between atoms: N2_21  and  C17_22
REMARK    7  A    between atoms: C17_22  and  C18_23
REMARK    8  A    between atoms: C18_23  and  O4_24
REMARK                            x       y       z     vdW  Elec       q    Type
REMARK                         _______ _______ _______ _____ _____    ______ ____
ROOT
ATOM      1  C3  UNL     1       6.923  13.535  15.707  0.00  0.00    +0.039 A 
ATOM      2  C4  UNL     1       6.196  12.603  14.958  0.00  0.00    +0.025 A 
ATOM      3  C5  UNL     1       5.112  11.935  15.511  0.00  0.00    +0.025 A 
ATOM      4  C6  UNL     1       4.717  12.176  16.831  0.00  0.00    +0.039 A 
ATOM      5  C7  UNL     1       5.466  13.079  17.633  0.00  0.00    +0.056 A 
ATOM      6  C8  UNL     1       6.577  13.763  17.067  0.00  0.00    +0.056 A 
ATOM      7  C9  UNL     1       7.381  14.675  17.936  0.00  0.00    +0.196 C 
ATOM      8  O2  UNL     1       8.524  15.067  17.578  0.00  0.00    -0.287 OA
ATOM      9  C10 UNL     1       6.865  15.087  19.258  0.00  0.00    +0.033 A 
ATOM     10  C11 UNL     1       5.765  14.412  19.816  0.00  0.00    +0.033 A 
ATOM     11  C12 UNL     1       5.138  13.300  19.073  0.00  0.00    +0.196 C 
ATOM     12  O3  UNL     1       4.363  12.516  19.686  0.00  0.00    -0.287 OA
ATOM     13  C13 UNL     1       5.293  14.786  21.088  0.00  0.00    +0.012 A 
ATOM     14  C14 UNL     1       5.907  15.825  21.791  0.00  0.00    +0.001 A 
ATOM     15  C15 UNL     1       6.998  16.495  21.238  0.00  0.00    +0.001 A 
ATOM     16  C16 UNL     1       7.480  16.129  19.979  0.00  0.00    +0.012 A 
ENDROOT
BRANCH   1  17
ATOM     17  N1  UNL     1       7.961  14.295  15.059  0.00  0.00    -0.341 N 
ATOM     18  H6  UNL     1       8.958  14.082  15.285  0.00  0.00    +0.146 HD
BRANCH  17  19
ATOM     19  C2  UNL     1       7.693  15.377  14.110  0.00  0.00    +0.129 C 
BRANCH  19  20
ATOM     20  C1  UNL     1       8.608  16.578  14.369  0.00  0.00    +0.174 C 
BRANCH  20  21
ATOM     21  O1  UNL     1       9.719  16.200  15.136  0.00  0.00    -0.393 OA
ATOM     22  H1  UNL     1       9.393  16.076  16.065  0.00  0.00    +0.209 HD
ENDBRANCH  20  21
ENDBRANCH  19  20
ENDBRANCH  17  19
ENDBRANCH   1  17
BRANCH   4  23
ATOM     23  N2  UNL     1       3.517  11.556  17.325  0.00  0.00    -0.341 N 
ATOM     24  H13 UNL     1       3.567  10.977  18.193  0.00  0.00    +0.146 HD
BRANCH  23  25
ATOM     25  C17 UNL     1       2.218  11.691  16.664  0.00  0.00    +0.129 C 
BRANCH  25  26
ATOM     26  C18 UNL     1       1.103  11.871  17.697  0.00  0.00    +0.174 C 
BRANCH  26  27
ATOM     27  O4  UNL     1       1.591  11.621  18.987  0.00  0.00    -0.393 OA
ATOM     28  H18 UNL     1       2.122  12.419  19.248  0.00  0.00    +0.209 HD
ENDBRANCH  26  27
ENDBRANCH  25  26
ENDBRANCH  23  25
ENDBRANCH   4  23
TORSDOF 8
ENDMDL
MODEL 3
REMARK minimizedAffinity -5.95651722
REMARK minimizedRMSD -1
REMARK  Name = /home/tchapet/Post-Doc/ARTICLES-DOSSIERS-DES-ARTICLES-EN-REDACTION/NOUVELS-AXES-DE-RECHERCHE-A-REGARDER-URGEMMENT/ARTICLES-EN-REDACTIONS/ARTICLE_MVOTO/Paper2_JCIM/docking_rerun/ligands/20549.pdb
REMARK  8 active torsions:
REMARK  status: ('A' for Active; 'I' for Inactive)
REMARK    1  A    between atoms: O1_1  and  C1_2
REMARK    2  A    between atoms: C1_2  and  C2_3
REMARK    3  A    between atoms: C2_3  and  N1_4
REMARK    4  A    between atoms: N1_4  and  C3_5
REMARK    5  A    between atoms: C6_8  and  N2_21
REMARK    6  A    between atoms: N2_21  and  C17_22
REMARK    7  A    between atoms: C17_22  and  C18_23
REMARK    8  A    between atoms: C18_23  and  O4_24
REMARK                            x       y       z     vdW  Elec       q    Type
REMARK                         _______ _______ _______ _____ _____    ______ ____
ROOT
ATOM      1  C3  UNL     1       4.754  12.604  17.827  0.00  0.00    +0.039 A 
ATOM      2  C4  UNL     1       4.867  12.739  19.216  0.00  0.00    +0.025 A 
ATOM      3  C5  UNL     1       5.876  13.510  19.777  0.00  0.00    +0.025 A 
ATOM      4  C6  UNL     1       6.806  14.173  18.969  0.00  0.00    +0.039 A 
ATOM      5  C7  UNL     1       6.748  14.015  17.558  0.00  0.00    +0.056 A 
ATOM      6  C8  UNL     1       5.716  13.224  16.983  0.00  0.00    +0.056 A 
ATOM      7  C9  UNL     1       5.696  13.031  15.501  0.00  0.00    +0.196 C 
ATOM      8  O2  UNL     1       4.998  12.120  14.978  0.00  0.00    -0.287 OA
ATOM      9  C10 UNL     1       6.541  13.874  14.631  0.00  0.00    +0.033 A 
ATOM     10  C11 UNL     1       7.561  14.658  15.201  0.00  0.00    +0.033 A 
ATOM     11  C12 UNL     1       7.774  14.628  16.662  0.00  0.00    +0.196 C 
ATOM     12  O3  UNL     1       8.851  15.084  17.132  0.00  0.00    -0.287 OA
ATOM     13  C13 UNL     1       8.384  15.438  14.368  0.00  0.00    +0.012 A 
ATOM     14  C14 UNL     1       8.188  15.442  12.985  0.00  0.00    +0.001 A 
ATOM     15  C15 UNL     1       7.176  14.665  12.420  0.00  0.00    +0.001 A 
ATOM     16  C16 UNL     1       6.357  13.882  13.235  0.00  0.00    +0.012 A 
ENDROOT
BRANCH   1  17
ATOM     17  N1  UNL     1       3.623  11.898  17.283  0.00  0.00    -0.341 N 
ATOM     18  H6  UNL     1       3.745  10.906  16.980  0.00  0.00    +0.146 HD
BRANCH  17  19
ATOM     19  C2  UNL     1       2.302  12.506  17.108  0.00  0.00    +0.129 C 
BRANCH  19  20
ATOM     20  C1  UNL     1       1.205  11.629  17.718  0.00  0.00    +0.174 C 
BRANCH  20  21
ATOM     21  O1  UNL     1       1.383  11.500  19.103  0.00  0.00    -0.393 OA
ATOM     22  H1  UNL     1       2.143  10.876  19.234  0.00  0.00    +0.209 HD
ENDBRANCH  20  21
ENDBRANCH  19  20
ENDBRANCH  17  19
ENDBRANCH   1  17
BRANCH   4  23
ATOM     23  N2  UNL     1       7.758  15.059  19.585  0.00  0.00    -0.341 N 
ATOM     24  H13 UNL     1       8.769  14.797  19.578  0.00  0.00    +0.146 HD
BRANCH  23  25
ATOM     25  C17 UNL     1       7.379  16.317  20.229  0.00  0.00    +0.129 C 
BRANCH  25  26
ATOM     26  C18 UNL     1       8.199  17.480  19.668  0.00  0.00    +0.174 C 
BRANCH  26  27
ATOM     27  O4  UNL     1       9.398  17.008  19.119  0.00  0.00    -0.393 OA
ATOM     28  H18 UNL     1       9.167  16.597  18.245  0.00  0.00    +0.209 HD
ENDBRANCH  26  27
ENDBRANCH  25  26
ENDBRANCH  23  25
ENDBRANCH   4  23
TORSDOF 8
ENDMDL
MODEL 4
REMARK minimizedAffinity -5.91789675
REMARK minimizedRMSD -1
REMARK  Name = /home/tchapet/Post-Doc/ARTICLES-DOSSIERS-DES-ARTICLES-EN-REDACTION/NOUVELS-AXES-DE-RECHERCHE-A-REGARDER-URGEMMENT/ARTICLES-EN-REDACTIONS/ARTICLE_MVOTO/Paper2_JCIM/docking_rerun/ligands/20549.pdb
REMARK  8 active torsions:
REMARK  status: ('A' for Active; 'I' for Inactive)
REMARK    1  A    between atoms: O1_1  and  C1_2
REMARK    2  A    between atoms: C1_2  and  C2_3
REMARK    3  A    between atoms: C2_3  and  N1_4
REMARK    4  A    between atoms: N1_4  and  C3_5
REMARK    5  A    between atoms: C6_8  and  N2_21
REMARK    6  A    between atoms: N2_21  and  C17_22
REMARK    7  A    between atoms: C17_22  and  C18_23
REMARK    8  A    between atoms: C18_23  and  O4_24
REMARK                            x       y       z     vdW  Elec       q    Type
REMARK                         _______ _______ _______ _____ _____    ______ ____
ROOT
ATOM      1  C3  UNL     1      19.893   1.119   6.863  0.00  0.00    +0.039 A 
ATOM      2  C4  UNL     1      19.390   1.874   5.798  0.00  0.00    +0.025 A 
ATOM      3  C5  UNL     1      18.140   1.601   5.259  0.00  0.00    +0.025 A 
ATOM      4  C6  UNL     1      17.351   0.564   5.765  0.00  0.00    +0.039 A 
ATOM      5  C7  UNL     1      17.856  -0.254   6.812  0.00  0.00    +0.056 A 
ATOM      6  C8  UNL     1      19.136   0.025   7.364  0.00  0.00    +0.056 A 
ATOM      7  C9  UNL     1      19.671  -0.872   8.433  0.00  0.00    +0.196 C 
ATOM      8  O2  UNL     1      20.893  -0.851   8.742  0.00  0.00    -0.287 OA
ATOM      9  C10 UNL     1      18.779  -1.839   9.107  0.00  0.00    +0.033 A 
ATOM     10  C11 UNL     1      17.512  -2.112   8.562  0.00  0.00    +0.033 A 
ATOM     11  C12 UNL     1      17.089  -1.430   7.323  0.00  0.00    +0.196 C 
ATOM     12  O3  UNL     1      16.102  -1.884   6.682  0.00  0.00    -0.287 OA
ATOM     13  C13 UNL     1      16.676  -3.054   9.188  0.00  0.00    +0.012 A 
ATOM     14  C14 UNL     1      17.095  -3.710  10.348  0.00  0.00    +0.001 A 
ATOM     15  C15 UNL     1      18.352  -3.438  10.889  0.00  0.00    +0.001 A 
ATOM     16  C16 UNL     1      19.194  -2.510  10.273  0.00  0.00    +0.012 A 
ENDROOT
BRANCH   1  17
ATOM     17  N1  UNL     1      21.137   1.512   7.473  0.00  0.00    -0.341 N 
ATOM     18  H6  UNL     1      21.251   1.397   8.505  0.00  0.00    +0.146 HD
BRANCH  17  19
ATOM     19  C2  UNL     1      22.254   2.092   6.724  0.00  0.00    +0.129 C 
BRANCH  19  20
ATOM     20  C1  UNL     1      22.758   3.376   7.391  0.00  0.00    +0.174 C 
BRANCH  20  21
ATOM     21  O1  UNL     1      22.385   4.503   6.645  0.00  0.00    -0.393 OA
ATOM     22  H1  UNL     1      22.976   4.524   5.848  0.00  0.00    +0.209 HD
ENDBRANCH  20  21
ENDBRANCH  19  20
ENDBRANCH  17  19
ENDBRANCH   1  17
BRANCH   4  23
ATOM     23  N2  UNL     1      16.015   0.393   5.261  0.00  0.00    -0.341 N 
ATOM     24  H13 UNL     1      15.229   0.277   5.939  0.00  0.00    +0.146 HD
BRANCH  23  25
ATOM     25  C17 UNL     1      15.697   0.369   3.832  0.00  0.00    +0.129 C 
BRANCH  25  26
ATOM     26  C18 UNL     1      14.714   1.487   3.479  0.00  0.00    +0.174 C 
BRANCH  26  27
ATOM     27  O4  UNL     1      13.413   1.125   3.851  0.00  0.00    -0.393 OA
ATOM     28  H18 UNL     1      13.360   1.232   4.837  0.00  0.00    +0.209 HD
ENDBRANCH  26  27
ENDBRANCH  25  26
ENDBRANCH  23  25
ENDBRANCH   4  23
TORSDOF 8
ENDMDL
MODEL 5
REMARK minimizedAffinity -5.89498997
REMARK minimizedRMSD -1
REMARK  Name = /home/tchapet/Post-Doc/ARTICLES-DOSSIERS-DES-ARTICLES-EN-REDACTION/NOUVELS-AXES-DE-RECHERCHE-A-REGARDER-URGEMMENT/ARTICLES-EN-REDACTIONS/ARTICLE_MVOTO/Paper2_JCIM/docking_rerun/ligands/20549.pdb
REMARK  8 active torsions:
REMARK  status: ('A' for Active; 'I' for Inactive)
REMARK    1  A    between atoms: O1_1  and  C1_2
REMARK    2  A    between atoms: C1_2  and  C2_3
REMARK    3  A    between atoms: C2_3  and  N1_4
REMARK    4  A    between atoms: N1_4  and  C3_5
REMARK    5  A    between atoms: C6_8  and  N2_21
REMARK    6  A    between atoms: N2_21  and  C17_22
REMARK    7  A    between atoms: C17_22  and  C18_23
REMARK    8  A    between atoms: C18_23  and  O4_24
REMARK                            x       y       z     vdW  Elec       q    Type
REMARK                         _______ _______ _______ _____ _____    ______ ____
ROOT
ATOM      1  C3  UNL     1       7.670  17.369  17.656  0.00  0.00    +0.039 A 
ATOM      2  C4  UNL     1       8.588  18.423  17.588  0.00  0.00    +0.025 A 
ATOM      3  C5  UNL     1       9.045  19.045  18.741  0.00  0.00    +0.025 A 
ATOM      4  C6  UNL     1       8.602  18.635  20.002  0.00  0.00    +0.039 A 
ATOM      5  C7  UNL     1       7.632  17.601  20.102  0.00  0.00    +0.056 A 
ATOM      6  C8  UNL     1       7.162  16.964  18.921  0.00  0.00    +0.056 A 
ATOM      7  C9  UNL     1       6.109  15.910  19.040  0.00  0.00    +0.196 C 
ATOM      8  O2  UNL     1       5.458  15.531  18.030  0.00  0.00    -0.287 OA
ATOM      9  C10 UNL     1       5.780  15.335  20.361  0.00  0.00    +0.033 A 
ATOM     10  C11 UNL     1       6.247  15.964  21.529  0.00  0.00    +0.033 A 
ATOM     11  C12 UNL     1       7.061  17.192  21.421  0.00  0.00    +0.196 C 
ATOM     12  O3  UNL     1       7.224  17.909  22.445  0.00  0.00    -0.287 OA
ATOM     13  C13 UNL     1       5.908  15.432  22.786  0.00  0.00    +0.012 A 
ATOM     14  C14 UNL     1       5.120  14.283  22.878  0.00  0.00    +0.001 A 
ATOM     15  C15 UNL     1       4.657  13.658  21.719  0.00  0.00    +0.001 A 
ATOM     16  C16 UNL     1       4.981  14.180  20.465  0.00  0.00    +0.012 A 
ENDROOT
BRANCH   1  17
ATOM     17  N1  UNL     1       7.317  16.670  16.448  0.00  0.00    -0.341 N 
ATOM     18  H6  UNL     1       6.351  16.782  16.064  0.00  0.00    +0.146 HD
BRANCH  17  19
ATOM     19  C2  UNL     1       8.237  15.786  15.730  0.00  0.00    +0.129 C 
BRANCH  19  20
ATOM     20  C1  UNL     1       8.340  14.421  16.417  0.00  0.00    +0.174 C 
BRANCH  20  21
ATOM     21  O1  UNL     1       9.549  14.308  17.118  0.00  0.00    -0.393 OA
ATOM     22  H1  UNL     1      10.259  14.171  16.438  0.00  0.00    +0.209 HD
ENDBRANCH  20  21
ENDBRANCH  19  20
ENDBRANCH  17  19
ENDBRANCH   1  17
BRANCH   4  23
ATOM     23  N2  UNL     1       9.192  19.223  21.175  0.00  0.00    -0.341 N 
ATOM     24  H13 UNL     1       8.599  19.816  21.797  0.00  0.00    +0.146 HD
BRANCH  23  25
ATOM     25  C17 UNL     1      10.596  19.033  21.544  0.00  0.00    +0.129 C 
BRANCH  25  26
ATOM     26  C18 UNL     1      10.841  17.599  22.017  0.00  0.00    +0.174 C 
BRANCH  26  27
ATOM     27  O4  UNL     1      10.028  17.307  23.121  0.00  0.00    -0.393 OA
ATOM     28  H18 UNL     1       9.113  17.157  22.766  0.00  0.00    +0.209 HD
ENDBRANCH  26  27
ENDBRANCH  25  26
ENDBRANCH  23  25
ENDBRANCH   4  23
TORSDOF 8
ENDMDL
MODEL 6
REMARK minimizedAffinity -5.84849358
REMARK minimizedRMSD -1
REMARK  Name = /home/tchapet/Post-Doc/ARTICLES-DOSSIERS-DES-ARTICLES-EN-REDACTION/NOUVELS-AXES-DE-RECHERCHE-A-REGARDER-URGEMMENT/ARTICLES-EN-REDACTIONS/ARTICLE_MVOTO/Paper2_JCIM/docking_rerun/ligands/20549.pdb
REMARK  8 active torsions:
REMARK  status: ('A' for Active; 'I' for Inactive)
REMARK    1  A    between atoms: O1_1  and  C1_2
REMARK    2  A    between atoms: C1_2  and  C2_3
REMARK    3  A    between atoms: C2_3  and  N1_4
REMARK    4  A    between atoms: N1_4  and  C3_5
REMARK    5  A    between atoms: C6_8  and  N2_21
REMARK    6  A    between atoms: N2_21  and  C17_22
REMARK    7  A    between atoms: C17_22  and  C18_23
REMARK    8  A    between atoms: C18_23  and  O4_24
REMARK                            x       y       z     vdW  Elec       q    Type
REMARK                         _______ _______ _______ _____ _____    ______ ____
ROOT
ATOM      1  C3  UNL     1       5.271  12.845  18.760  0.00  0.00    +0.039 A 
ATOM      2  C4  UNL     1       4.761  12.981  20.056  0.00  0.00    +0.025 A 
ATOM      3  C5  UNL     1       5.115  14.062  20.852  0.00  0.00    +0.025 A 
ATOM      4  C6  UNL     1       5.991  15.044  20.378  0.00  0.00    +0.039 A 
ATOM      5  C7  UNL     1       6.565  14.908  19.086  0.00  0.00    +0.056 A 
ATOM      6  C8  UNL     1       6.203  13.800  18.271  0.00  0.00    +0.056 A 
ATOM      7  C9  UNL     1       6.850  13.648  16.932  0.00  0.00    +0.196 C 
ATOM      8  O2  UNL     1       6.793  12.555  16.308  0.00  0.00    -0.287 OA
ATOM      9  C10 UNL     1       7.616  14.768  16.346  0.00  0.00    +0.033 A 
ATOM     10  C11 UNL     1       7.972  15.864  17.152  0.00  0.00    +0.033 A 
ATOM     11  C12 UNL     1       7.575  15.883  18.574  0.00  0.00    +0.196 C 
ATOM     12  O3  UNL     1       8.135  16.701  19.354  0.00  0.00    -0.287 OA
ATOM     13  C13 UNL     1       8.726  16.916  16.599  0.00  0.00    +0.012 A 
ATOM     14  C14 UNL     1       9.115  16.877  15.258  0.00  0.00    +0.001 A 
ATOM     15  C15 UNL     1       8.761  15.790  14.459  0.00  0.00    +0.001 A 
ATOM     16  C16 UNL     1       8.018  14.737  14.997  0.00  0.00    +0.012 A 
ENDROOT
BRANCH   1  17
ATOM     17  N1  UNL     1       4.783  11.778  17.925  0.00  0.00    -0.341 N 
ATOM     18  H6  UNL     1       5.370  10.922  17.805  0.00  0.00    +0.146 HD
BRANCH  17  19
ATOM     19  C2  UNL     1       3.507  11.835  17.208  0.00  0.00    +0.129 C 
BRANCH  19  20
ATOM     20  C1  UNL     1       3.558  11.002  15.924  0.00  0.00    +0.174 C 
BRANCH  20  21
ATOM     21  O1  UNL     1       4.884  10.744  15.551  0.00  0.00    -0.393 OA
ATOM     22  H1  UNL     1       5.243  11.590  15.176  0.00  0.00    +0.209 HD
ENDBRANCH  20  21
ENDBRANCH  19  20
ENDBRANCH  17  19
ENDBRANCH   1  17
BRANCH   4  23
ATOM     23  N2  UNL     1       6.235  16.209  21.187  0.00  0.00    -0.341 N 
ATOM     24  H13 UNL     1       6.114  17.155  20.761  0.00  0.00    +0.146 HD
BRANCH  23  25
ATOM     25  C17 UNL     1       6.653  16.135  22.588  0.00  0.00    +0.129 C 
BRANCH  25  26
ATOM     26  C18 UNL     1       8.002  16.831  22.786  0.00  0.00    +0.174 C 
BRANCH  26  27
ATOM     27  O4  UNL     1       9.013  16.129  22.116  0.00  0.00    -0.393 OA
ATOM     28  H18 UNL     1       8.914  16.343  21.151  0.00  0.00    +0.209 HD
ENDBRANCH  26  27
ENDBRANCH  25  26
ENDBRANCH  23  25
ENDBRANCH   4  23
TORSDOF 8
ENDMDL
MODEL 7
REMARK minimizedAffinity -5.77831411
REMARK minimizedRMSD -1
REMARK  Name = /home/tchapet/Post-Doc/ARTICLES-DOSSIERS-DES-ARTICLES-EN-REDACTION/NOUVELS-AXES-DE-RECHERCHE-A-REGARDER-URGEMMENT/ARTICLES-EN-REDACTIONS/ARTICLE_MVOTO/Paper2_JCIM/docking_rerun/ligands/20549.pdb
REMARK  8 active torsions:
REMARK  status: ('A' for Active; 'I' for Inactive)
REMARK    1  A    between atoms: O1_1  and  C1_2
REMARK    2  A    between atoms: C1_2  and  C2_3
REMARK    3  A    between atoms: C2_3  and  N1_4
REMARK    4  A    between atoms: N1_4  and  C3_5
REMARK    5  A    between atoms: C6_8  and  N2_21
REMARK    6  A    between atoms: N2_21  and  C17_22
REMARK    7  A    between atoms: C17_22  and  C18_23
REMARK    8  A    between atoms: C18_23  and  O4_24
REMARK                            x       y       z     vdW  Elec       q    Type
REMARK                         _______ _______ _______ _____ _____    ______ ____
ROOT
ATOM      1  C3  UNL     1      17.513   0.099   6.183  0.00  0.00    +0.039 A 
ATOM      2  C4  UNL     1      18.376   1.079   5.679  0.00  0.00    +0.025 A 
ATOM      3  C5  UNL     1      19.600   1.329   6.283  0.00  0.00    +0.025 A 
ATOM      4  C6  UNL     1      20.004   0.607   7.412  0.00  0.00    +0.039 A 
ATOM      5  C7  UNL     1      19.128  -0.358   7.977  0.00  0.00    +0.056 A 
ATOM      6  C8  UNL     1      17.873  -0.614   7.359  0.00  0.00    +0.056 A 
ATOM      7  C9  UNL     1      16.945  -1.600   7.991  0.00  0.00    +0.196 C 
ATOM      8  O2  UNL     1      15.730  -1.645   7.662  0.00  0.00    -0.287 OA
ATOM      9  C10 UNL     1      17.433  -2.501   9.056  0.00  0.00    +0.033 A 
ATOM     10  C11 UNL     1      18.675  -2.249   9.666  0.00  0.00    +0.033 A 
ATOM     11  C12 UNL     1      19.477  -1.087   9.234  0.00  0.00    +0.196 C 
ATOM     12  O3  UNL     1      20.427  -0.694   9.965  0.00  0.00    -0.287 OA
ATOM     13  C13 UNL     1      19.124  -3.091  10.699  0.00  0.00    +0.012 A 
ATOM     14  C14 UNL     1      18.348  -4.175  11.115  0.00  0.00    +0.001 A 
ATOM     15  C15 UNL     1      17.116  -4.425  10.510  0.00  0.00    +0.001 A 
ATOM     16  C16 UNL     1      16.656  -3.593   9.487  0.00  0.00    +0.012 A 
ENDROOT
BRANCH   1  17
ATOM     17  N1  UNL     1      16.310  -0.214   5.455  0.00  0.00    -0.341 N 
ATOM     18  H6  UNL     1      15.477  -0.561   5.982  0.00  0.00    +0.146 HD
BRANCH  17  19
ATOM     19  C2  UNL     1      16.194  -0.094   4.000  0.00  0.00    +0.129 C 
BRANCH  19  20
ATOM     20  C1  UNL     1      15.192   0.999   3.615  0.00  0.00    +0.174 C 
BRANCH  20  21
ATOM     21  O1  UNL     1      14.518   1.477   4.748  0.00  0.00    -0.393 OA
ATOM     22  H1  UNL     1      13.862   0.777   5.003  0.00  0.00    +0.209 HD
ENDBRANCH  20  21
ENDBRANCH  19  20
ENDBRANCH  17  19
ENDBRANCH   1  17
BRANCH   4  23
ATOM     23  N2  UNL     1      21.330   0.812   7.933  0.00  0.00    -0.341 N 
ATOM     24  H13 UNL     1      21.486   0.732   8.963  0.00  0.00    +0.146 HD
BRANCH  23  25
ATOM     25  C17 UNL     1      22.480   1.133   7.087  0.00  0.00    +0.129 C 
BRANCH  25  26
ATOM     26  C18 UNL     1      23.094   2.473   7.497  0.00  0.00    +0.174 C 
BRANCH  26  27
ATOM     27  O4  UNL     1      22.094   3.352   7.933  0.00  0.00    -0.393 OA
ATOM     28  H18 UNL     1      21.838   3.058   8.846  0.00  0.00    +0.209 HD
ENDBRANCH  26  27
ENDBRANCH  25  26
ENDBRANCH  23  25
ENDBRANCH   4  23
TORSDOF 8
ENDMDL
MODEL 8
REMARK minimizedAffinity -5.65140057
REMARK minimizedRMSD -1
REMARK  Name = /home/tchapet/Post-Doc/ARTICLES-DOSSIERS-DES-ARTICLES-EN-REDACTION/NOUVELS-AXES-DE-RECHERCHE-A-REGARDER-URGEMMENT/ARTICLES-EN-REDACTIONS/ARTICLE_MVOTO/Paper2_JCIM/docking_rerun/ligands/20549.pdb
REMARK  8 active torsions:
REMARK  status: ('A' for Active; 'I' for Inactive)
REMARK    1  A    between atoms: O1_1  and  C1_2
REMARK    2  A    between atoms: C1_2  and  C2_3
REMARK    3  A    between atoms: C2_3  and  N1_4
REMARK    4  A    between atoms: N1_4  and  C3_5
REMARK    5  A    between atoms: C6_8  and  N2_21
REMARK    6  A    between atoms: N2_21  and  C17_22
REMARK    7  A    between atoms: C17_22  and  C18_23
REMARK    8  A    between atoms: C18_23  and  O4_24
REMARK                            x       y       z     vdW  Elec       q    Type
REMARK                         _______ _______ _______ _____ _____    ______ ____
ROOT
ATOM      1  C3  UNL     1       8.573  16.971  18.025  0.00  0.00    +0.039 A 
ATOM      2  C4  UNL     1       9.038  16.463  16.807  0.00  0.00    +0.025 A 
ATOM      3  C5  UNL     1       8.674  15.195  16.377  0.00  0.00    +0.025 A 
ATOM      4  C6  UNL     1       7.832  14.390  17.150  0.00  0.00    +0.039 A 
ATOM      5  C7  UNL     1       7.383  14.856  18.415  0.00  0.00    +0.056 A 
ATOM      6  C8  UNL     1       7.757  16.155  18.856  0.00  0.00    +0.056 A 
ATOM      7  C9  UNL     1       7.315  16.613  20.209  0.00  0.00    +0.196 C 
ATOM      8  O2  UNL     1       7.852  17.611  20.760  0.00  0.00    -0.287 OA
ATOM      9  C10 UNL     1       6.274  15.863  20.943  0.00  0.00    +0.033 A 
ATOM     10  C11 UNL     1       5.903  14.579  20.505  0.00  0.00    +0.033 A 
ATOM     11  C12 UNL     1       6.558  13.996  19.316  0.00  0.00    +0.196 C 
ATOM     12  O3  UNL     1       6.448  12.758  19.103  0.00  0.00    -0.287 OA
ATOM     13  C13 UNL     1       4.934  13.854  21.222  0.00  0.00    +0.012 A 
ATOM     14  C14 UNL     1       4.337  14.406  22.358  0.00  0.00    +0.001 A 
ATOM     15  C15 UNL     1       4.704  15.680  22.791  0.00  0.00    +0.001 A 
ATOM     16  C16 UNL     1       5.670  16.407  22.092  0.00  0.00    +0.012 A 
ENDROOT
BRANCH   1  17
ATOM     17  N1  UNL     1       8.873  18.335  18.375  0.00  0.00    -0.341 N 
ATOM     18  H6  UNL     1       9.374  18.528  19.271  0.00  0.00    +0.146 HD
BRANCH  17  19
ATOM     19  C2  UNL     1       8.492  19.482  17.547  0.00  0.00    +0.129 C 
BRANCH  19  20
ATOM     20  C1  UNL     1       7.670  20.493  18.351  0.00  0.00    +0.174 C 
BRANCH  20  21
ATOM     21  O1  UNL     1       8.508  21.349  19.079  0.00  0.00    -0.393 OA
ATOM     22  H1  UNL     1       8.856  20.821  19.844  0.00  0.00    +0.209 HD
ENDBRANCH  20  21
ENDBRANCH  19  20
ENDBRANCH  17  19
ENDBRANCH   1  17
BRANCH   4  23
ATOM     23  N2  UNL     1       7.381  13.134  16.613  0.00  0.00    -0.341 N 
ATOM     24  H13 UNL     1       7.808  12.249  16.969  0.00  0.00    +0.146 HD
BRANCH  23  25
ATOM     25  C17 UNL     1       6.348  13.031  15.581  0.00  0.00    +0.129 C 
BRANCH  25  26
ATOM     26  C18 UNL     1       5.783  11.610  15.521  0.00  0.00    +0.174 C 
BRANCH  26  27
ATOM     27  O4  UNL     1       5.692  11.070  16.811  0.00  0.00    -0.393 OA
ATOM     28  H18 UNL     1       4.901  11.491  17.239  0.00  0.00    +0.209 HD
ENDBRANCH  26  27
ENDBRANCH  25  26
ENDBRANCH  23  25
ENDBRANCH   4  23
TORSDOF 8
ENDMDL
MODEL 9
REMARK minimizedAffinity -5.6203599
REMARK minimizedRMSD -1
REMARK  Name = /home/tchapet/Post-Doc/ARTICLES-DOSSIERS-DES-ARTICLES-EN-REDACTION/NOUVELS-AXES-DE-RECHERCHE-A-REGARDER-URGEMMENT/ARTICLES-EN-REDACTIONS/ARTICLE_MVOTO/Paper2_JCIM/docking_rerun/ligands/20549.pdb
REMARK  8 active torsions:
REMARK  status: ('A' for Active; 'I' for Inactive)
REMARK    1  A    between atoms: O1_1  and  C1_2
REMARK    2  A    between atoms: C1_2  and  C2_3
REMARK    3  A    between atoms: C2_3  and  N1_4
REMARK    4  A    between atoms: N1_4  and  C3_5
REMARK    5  A    between atoms: C6_8  and  N2_21
REMARK    6  A    between atoms: N2_21  and  C17_22
REMARK    7  A    between atoms: C17_22  and  C18_23
REMARK    8  A    between atoms: C18_23  and  O4_24
REMARK                            x       y       z     vdW  Elec       q    Type
REMARK                         _______ _______ _______ _____ _____    ______ ____
ROOT
ATOM      1  C3  UNL     1       7.051  14.023  18.149  0.00  0.00    +0.039 A 
ATOM      2  C4  UNL     1       8.008  15.019  17.924  0.00  0.00    +0.025 A 
ATOM      3  C5  UNL     1       8.346  15.404  16.634  0.00  0.00    +0.025 A 
ATOM      4  C6  UNL     1       7.739  14.806  15.525  0.00  0.00    +0.039 A 
ATOM      5  C7  UNL     1       6.801  13.756  15.719  0.00  0.00    +0.056 A 
ATOM      6  C8  UNL     1       6.456  13.361  17.041  0.00  0.00    +0.056 A 
ATOM      7  C9  UNL     1       5.502  12.226  17.228  0.00  0.00    +0.196 C 
ATOM      8  O2  UNL     1       5.392  11.652  18.344  0.00  0.00    -0.287 OA
ATOM      9  C10 UNL     1       4.712  11.723  16.084  0.00  0.00    +0.033 A 
ATOM     10  C11 UNL     1       5.053  12.116  14.777  0.00  0.00    +0.033 A 
ATOM     11  C12 UNL     1       6.196  13.027  14.565  0.00  0.00    +0.196 C 
ATOM     12  O3  UNL     1       6.680  13.140  13.405  0.00  0.00    -0.287 OA
ATOM     13  C13 UNL     1       4.319  11.614  13.688  0.00  0.00    +0.012 A 
ATOM     14  C14 UNL     1       3.253  10.736  13.899  0.00  0.00    +0.001 A 
ATOM     15  C15 UNL     1       2.914  10.347  15.195  0.00  0.00    +0.001 A 
ATOM     16  C16 UNL     1       3.640  10.833  16.284  0.00  0.00    +0.012 A 
ENDROOT
BRANCH   1  17
ATOM     17  N1  UNL     1       6.640  13.741  19.500  0.00  0.00    -0.341 N 
ATOM     18  H6  UNL     1       7.031  12.900  19.982  0.00  0.00    +0.146 HD
BRANCH  17  19
ATOM     19  C2  UNL     1       5.677  14.561  20.237  0.00  0.00    +0.129 C 
BRANCH  19  20
ATOM     20  C1  UNL     1       5.025  13.764  21.370  0.00  0.00    +0.174 C 
BRANCH  20  21
ATOM     21  O1  UNL     1       4.324  12.661  20.862  0.00  0.00    -0.393 OA
ATOM     22  H1  UNL     1       3.493  13.017  20.453  0.00  0.00    +0.209 HD
ENDBRANCH  20  21
ENDBRANCH  19  20
ENDBRANCH  17  19
ENDBRANCH   1  17
BRANCH   4  23
ATOM     23  N2  UNL     1       8.027  15.319  14.212  0.00  0.00    -0.341 N 
ATOM     24  H13 UNL     1       8.065  14.654  13.407  0.00  0.00    +0.146 HD
BRANCH  23  25
ATOM     25  C17 UNL     1       8.276  16.736  13.944  0.00  0.00    +0.129 C 
BRANCH  25  26
ATOM     26  C18 UNL     1       8.254  17.013  12.439  0.00  0.00    +0.174 C 
BRANCH  26  27
ATOM     27  O4  UNL     1       9.557  17.003  11.925  0.00  0.00    -0.393 OA
ATOM     28  H18 UNL     1       9.830  16.050  11.863  0.00  0.00    +0.209 HD
ENDBRANCH  26  27
ENDBRANCH  25  26
ENDBRANCH  23  25
ENDBRANCH   4  23
TORSDOF 8
ENDMDL
