MODEL 1
REMARK minimizedAffinity -6.19556761
REMARK minimizedRMSD -1
REMARK  Name = /home/tchapet/Post-Doc/ARTICLES-DOSSIERS-DES-ARTICLES-EN-REDACTION/NOUVELS-AXES-DE-RECHERCHE-A-REGARDER-URGEMMENT/ARTICLES-EN-REDACTIONS/ARTICLE_MVOTO/Paper2_JCIM/docking_rerun/ligands/20549.pdb
REMARK  8 active torsions:
REMARK  status: ('A' for Active; 'I' for Inactive)
REMARK    1  A    between atoms: O1_1  and  C1_2
REMARK    2  A    between atoms: C1_2  and  C2_3
REMARK    3  A    between atoms: C2_3  and  N1_4
REMARK    4  A    between atoms: N1_4  and  C3_5
REMARK    5  A    between atoms: C6_8  and  N2_21
REMARK    6  A    between atoms: N2_21  and  C17_22
REMARK    7  A    between atoms: C17_22  and  C18_23
REMARK    8  A    between atoms: C18_23  and  O4_24
REMARK                            x       y       z     vdW  Elec       q    Type
REMARK                         _______ _______ _______ _____ _____    ______ ____
ROOT
ATOM      1  C3  UNL     1     -19.072 -29.646   2.367  0.00  0.00    +0.039 A 
ATOM      2  C4  UNL     1     -19.276 -28.407   2.986  0.00  0.00    +0.025 A 
ATOM      3  C5  UNL     1     -20.528 -28.048   3.466  0.00  0.00    +0.025 A 
ATOM      4  C6  UNL     1     -21.618 -28.916   3.345  0.00  0.00    +0.039 A 
ATOM      5  C7  UNL     1     -21.455 -30.159   2.676  0.00  0.00    +0.056 A 
ATOM      6  C8  UNL     1     -20.173 -30.526   2.183  0.00  0.00    +0.056 A 
ATOM      7  C9  UNL     1     -20.027 -31.817   1.443  0.00  0.00    +0.196 C 
ATOM      8  O2  UNL     1     -19.005 -32.047   0.743  0.00  0.00    -0.287 OA
ATOM      9  C10 UNL     1     -21.112 -32.820   1.480  0.00  0.00    +0.033 A 
ATOM     10  C11 UNL     1     -22.379 -32.457   1.970  0.00  0.00    +0.033 A 
ATOM     11  C12 UNL     1     -22.610 -31.077   2.442  0.00  0.00    +0.196 C 
ATOM     12  O3  UNL     1     -23.795 -30.674   2.597  0.00  0.00    -0.287 OA
ATOM     13  C13 UNL     1     -23.418 -33.405   1.977  0.00  0.00    +0.012 A 
ATOM     14  C14 UNL     1     -23.194 -34.701   1.509  0.00  0.00    +0.001 A 
ATOM     15  C15 UNL     1     -21.937 -35.062   1.023  0.00  0.00    +0.001 A 
ATOM     16  C16 UNL     1     -20.899 -34.128   1.005  0.00  0.00    +0.012 A 
ENDROOT
BRANCH   1  17
ATOM     17  N1  UNL     1     -17.734 -30.030   1.995  0.00  0.00    -0.341 N 
ATOM     18  H6  UNL     1     -17.485 -30.072   0.981  0.00  0.00    +0.146 HD
BRANCH  17  19
ATOM     19  C2  UNL     1     -16.700 -30.389   2.967  0.00  0.00    +0.129 C 
BRANCH  19  20
ATOM     20  C1  UNL     1     -16.026 -31.712   2.592  0.00  0.00    +0.174 C 
BRANCH  20  21
ATOM     21  O1  UNL     1     -14.792 -31.844   3.244  0.00  0.00    -0.393 OA
ATOM     22  H1  UNL     1     -14.160 -31.235   2.780  0.00  0.00    +0.209 HD
ENDBRANCH  20  21
ENDBRANCH  19  20
ENDBRANCH  17  19
ENDBRANCH   1  17
BRANCH   4  23
ATOM     23  N2  UNL     1     -22.867 -28.557   3.964  0.00  0.00    -0.341 N 
ATOM     24  H13 UNL     1     -23.617 -28.127   3.378  0.00  0.00    +0.146 HD
BRANCH  23  25
ATOM     25  C17 UNL     1     -23.141 -28.763   5.387  0.00  0.00    +0.129 C 
BRANCH  25  26
ATOM     26  C18 UNL     1     -24.648 -28.814   5.645  0.00  0.00    +0.174 C 
BRANCH  26  27
ATOM     27  O4  UNL     1     -25.320 -29.279   4.506  0.00  0.00    -0.393 OA
ATOM     28  H18 UNL     1     -25.175 -30.262   4.474  0.00  0.00    +0.209 HD
ENDBRANCH  26  27
ENDBRANCH  25  26
ENDBRANCH  23  25
ENDBRANCH   4  23
TORSDOF 8
ENDMDL
MODEL 2
REMARK minimizedAffinity -5.9384737
REMARK minimizedRMSD -1
REMARK  Name = /home/tchapet/Post-Doc/ARTICLES-DOSSIERS-DES-ARTICLES-EN-REDACTION/NOUVELS-AXES-DE-RECHERCHE-A-REGARDER-URGEMMENT/ARTICLES-EN-REDACTIONS/ARTICLE_MVOTO/Paper2_JCIM/docking_rerun/ligands/20549.pdb
REMARK  8 active torsions:
REMARK  status: ('A' for Active; 'I' for Inactive)
REMARK    1  A    between atoms: O1_1  and  C1_2
REMARK    2  A    between atoms: C1_2  and  C2_3
REMARK    3  A    between atoms: C2_3  and  N1_4
REMARK    4  A    between atoms: N1_4  and  C3_5
REMARK    5  A    between atoms: C6_8  and  N2_21
REMARK    6  A    between atoms: N2_21  and  C17_22
REMARK    7  A    between atoms: C17_22  and  C18_23
REMARK    8  A    between atoms: C18_23  and  O4_24
REMARK                            x       y       z     vdW  Elec       q    Type
REMARK                         _______ _______ _______ _____ _____    ______ ____
ROOT
ATOM      1  C3  UNL     1     -21.206 -31.423   7.094  0.00  0.00    +0.039 A 
ATOM      2  C4  UNL     1     -22.439 -31.240   7.730  0.00  0.00    +0.025 A 
ATOM      3  C5  UNL     1     -23.369 -30.337   7.234  0.00  0.00    +0.025 A 
ATOM      4  C6  UNL     1     -23.099 -29.587   6.084  0.00  0.00    +0.039 A 
ATOM      5  C7  UNL     1     -21.836 -29.712   5.446  0.00  0.00    +0.056 A 
ATOM      6  C8  UNL     1     -20.882 -30.636   5.954  0.00  0.00    +0.056 A 
ATOM      7  C9  UNL     1     -19.542 -30.724   5.298  0.00  0.00    +0.196 C 
ATOM      8  O2  UNL     1     -18.577 -31.294   5.874  0.00  0.00    -0.287 OA
ATOM      9  C10 UNL     1     -19.317 -30.090   3.982  0.00  0.00    +0.033 A 
ATOM     10  C11 UNL     1     -20.262 -29.178   3.478  0.00  0.00    +0.033 A 
ATOM     11  C12 UNL     1     -21.468 -28.866   4.271  0.00  0.00    +0.196 C 
ATOM     12  O3  UNL     1     -22.152 -27.849   3.970  0.00  0.00    -0.287 OA
ATOM     13  C13 UNL     1     -20.032 -28.554   2.239  0.00  0.00    +0.012 A 
ATOM     14  C14 UNL     1     -18.878 -28.841   1.507  0.00  0.00    +0.001 A 
ATOM     15  C15 UNL     1     -17.941 -29.745   2.006  0.00  0.00    +0.001 A 
ATOM     16  C16 UNL     1     -18.154 -30.367   3.239  0.00  0.00    +0.012 A 
ENDROOT
BRANCH   1  17
ATOM     17  N1  UNL     1     -20.321 -32.456   7.567  0.00  0.00    -0.341 N 
ATOM     18  H6  UNL     1     -19.856 -33.080   6.871  0.00  0.00    +0.146 HD
BRANCH  17  19
ATOM     19  C2  UNL     1     -20.050 -32.697   8.986  0.00  0.00    +0.129 C 
BRANCH  19  20
ATOM     20  C1  UNL     1     -19.173 -31.589   9.577  0.00  0.00    +0.174 C 
BRANCH  20  21
ATOM     21  O1  UNL     1     -18.138 -31.250   8.693  0.00  0.00    -0.393 OA
ATOM     22  H1  UNL     1     -17.474 -31.987   8.739  0.00  0.00    +0.209 HD
ENDBRANCH  20  21
ENDBRANCH  19  20
ENDBRANCH  17  19
ENDBRANCH   1  17
BRANCH   4  23
ATOM     23  N2  UNL     1     -24.137 -28.755   5.535  0.00  0.00    -0.341 N 
ATOM     24  H13 UNL     1     -23.954 -27.734   5.413  0.00  0.00    +0.146 HD
BRANCH  23  25
ATOM     25  C17 UNL     1     -25.448 -29.271   5.138  0.00  0.00    +0.129 C 
BRANCH  25  26
ATOM     26  C18 UNL     1     -25.336 -30.103   3.859  0.00  0.00    +0.174 C 
BRANCH  26  27
ATOM     27  O4  UNL     1     -24.618 -29.399   2.883  0.00  0.00    -0.393 OA
ATOM     28  H18 UNL     1     -23.661 -29.454   3.141  0.00  0.00    +0.209 HD
ENDBRANCH  26  27
ENDBRANCH  25  26
ENDBRANCH  23  25
ENDBRANCH   4  23
TORSDOF 8
ENDMDL
MODEL 3
REMARK minimizedAffinity -5.89056063
REMARK minimizedRMSD -1
REMARK  Name = /home/tchapet/Post-Doc/ARTICLES-DOSSIERS-DES-ARTICLES-EN-REDACTION/NOUVELS-AXES-DE-RECHERCHE-A-REGARDER-URGEMMENT/ARTICLES-EN-REDACTIONS/ARTICLE_MVOTO/Paper2_JCIM/docking_rerun/ligands/20549.pdb
REMARK  8 active torsions:
REMARK  status: ('A' for Active; 'I' for Inactive)
REMARK    1  A    between atoms: O1_1  and  C1_2
REMARK    2  A    between atoms: C1_2  and  C2_3
REMARK    3  A    between atoms: C2_3  and  N1_4
REMARK    4  A    between atoms: N1_4  and  C3_5
REMARK    5  A    between atoms: C6_8  and  N2_21
REMARK    6  A    between atoms: N2_21  and  C17_22
REMARK    7  A    between atoms: C17_22  and  C18_23
REMARK    8  A    between atoms: C18_23  and  O4_24
REMARK                            x       y       z     vdW  Elec       q    Type
REMARK                         _______ _______ _______ _____ _____    ______ ____
ROOT
ATOM      1  C3  UNL     1      -0.020  -8.353   1.783  0.00  0.00    +0.039 A 
ATOM      2  C4  UNL     1       0.410  -7.077   1.402  0.00  0.00    +0.025 A 
ATOM      3  C5  UNL     1       0.635  -6.088   2.349  0.00  0.00    +0.025 A 
ATOM      4  C6  UNL     1       0.439  -6.341   3.711  0.00  0.00    +0.039 A 
ATOM      5  C7  UNL     1      -0.046  -7.610   4.126  0.00  0.00    +0.056 A 
ATOM      6  C8  UNL     1      -0.278  -8.623   3.155  0.00  0.00    +0.056 A 
ATOM      7  C9  UNL     1      -0.830  -9.938   3.603  0.00  0.00    +0.196 C 
ATOM      8  O2  UNL     1      -1.324 -10.747   2.773  0.00  0.00    -0.287 OA
ATOM      9  C10 UNL     1      -0.855 -10.282   5.040  0.00  0.00    +0.033 A 
ATOM     10  C11 UNL     1      -0.623  -9.280   5.999  0.00  0.00    +0.033 A 
ATOM     11  C12 UNL     1      -0.357  -7.896   5.559  0.00  0.00    +0.196 C 
ATOM     12  O3  UNL     1      -0.445  -6.960   6.399  0.00  0.00    -0.287 OA
ATOM     13  C13 UNL     1      -0.675  -9.604   7.367  0.00  0.00    +0.012 A 
ATOM     14  C14 UNL     1      -0.949 -10.912   7.774  0.00  0.00    +0.001 A 
ATOM     15  C15 UNL     1      -1.178 -11.906   6.822  0.00  0.00    +0.001 A 
ATOM     16  C16 UNL     1      -1.135 -11.596   5.461  0.00  0.00    +0.012 A 
ENDROOT
BRANCH   1  17
ATOM     17  N1  UNL     1      -0.123  -9.384   0.784  0.00  0.00    -0.341 N 
ATOM     18  H6  UNL     1       0.436 -10.260   0.903  0.00  0.00    +0.146 HD
BRANCH  17  19
ATOM     19  C2  UNL     1      -0.957  -9.266  -0.414  0.00  0.00    +0.129 C 
BRANCH  19  20
ATOM     20  C1  UNL     1      -2.412  -8.962  -0.045  0.00  0.00    +0.174 C 
BRANCH  20  21
ATOM     21  O1  UNL     1      -2.954  -9.995   0.732  0.00  0.00    -0.393 OA
ATOM     22  H1  UNL     1      -3.127 -10.753   0.115  0.00  0.00    +0.209 HD
ENDBRANCH  20  21
ENDBRANCH  19  20
ENDBRANCH  17  19
ENDBRANCH   1  17
BRANCH   4  23
ATOM     23  N2  UNL     1       0.801  -5.328   4.667  0.00  0.00    -0.341 N 
ATOM     24  H13 UNL     1       0.052  -4.892   5.250  0.00  0.00    +0.146 HD
BRANCH  23  25
ATOM     25  C17 UNL     1       2.178  -4.872   4.865  0.00  0.00    +0.129 C 
BRANCH  25  26
ATOM     26  C18 UNL     1       2.662  -5.211   6.276  0.00  0.00    +0.174 C 
BRANCH  26  27
ATOM     27  O4  UNL     1       1.584  -5.219   7.171  0.00  0.00    -0.393 OA
ATOM     28  H18 UNL     1       1.090  -6.065   7.011  0.00  0.00    +0.209 HD
ENDBRANCH  26  27
ENDBRANCH  25  26
ENDBRANCH  23  25
ENDBRANCH   4  23
TORSDOF 8
ENDMDL
MODEL 4
REMARK minimizedAffinity -5.79243279
REMARK minimizedRMSD -1
REMARK  Name = /home/tchapet/Post-Doc/ARTICLES-DOSSIERS-DES-ARTICLES-EN-REDACTION/NOUVELS-AXES-DE-RECHERCHE-A-REGARDER-URGEMMENT/ARTICLES-EN-REDACTIONS/ARTICLE_MVOTO/Paper2_JCIM/docking_rerun/ligands/20549.pdb
REMARK  8 active torsions:
REMARK  status: ('A' for Active; 'I' for Inactive)
REMARK    1  A    between atoms: O1_1  and  C1_2
REMARK    2  A    between atoms: C1_2  and  C2_3
REMARK    3  A    between atoms: C2_3  and  N1_4
REMARK    4  A    between atoms: N1_4  and  C3_5
REMARK    5  A    between atoms: C6_8  and  N2_21
REMARK    6  A    between atoms: N2_21  and  C17_22
REMARK    7  A    between atoms: C17_22  and  C18_23
REMARK    8  A    between atoms: C18_23  and  O4_24
REMARK                            x       y       z     vdW  Elec       q    Type
REMARK                         _______ _______ _______ _____ _____    ______ ____
ROOT
ATOM      1  C3  UNL     1     -24.077 -32.256   2.359  0.00  0.00    +0.039 A 
ATOM      2  C4  UNL     1     -25.345 -32.147   2.939  0.00  0.00    +0.025 A 
ATOM      3  C5  UNL     1     -25.654 -31.091   3.786  0.00  0.00    +0.025 A 
ATOM      4  C6  UNL     1     -24.704 -30.108   4.081  0.00  0.00    +0.039 A 
ATOM      5  C7  UNL     1     -23.391 -30.218   3.548  0.00  0.00    +0.056 A 
ATOM      6  C8  UNL     1     -23.075 -31.300   2.682  0.00  0.00    +0.056 A 
ATOM      7  C9  UNL     1     -21.678 -31.427   2.166  0.00  0.00    +0.196 C 
ATOM      8  O2  UNL     1     -21.276 -32.503   1.649  0.00  0.00    -0.287 OA
ATOM      9  C10 UNL     1     -20.729 -30.302   2.307  0.00  0.00    +0.033 A 
ATOM     10  C11 UNL     1     -21.044 -29.231   3.163  0.00  0.00    +0.033 A 
ATOM     11  C12 UNL     1     -22.318 -29.243   3.909  0.00  0.00    +0.196 C 
ATOM     12  O3  UNL     1     -22.465 -28.453   4.881  0.00  0.00    -0.287 OA
ATOM     13  C13 UNL     1     -20.127 -28.176   3.319  0.00  0.00    +0.012 A 
ATOM     14  C14 UNL     1     -18.915 -28.185   2.625  0.00  0.00    +0.001 A 
ATOM     15  C15 UNL     1     -18.604 -29.247   1.776  0.00  0.00    +0.001 A 
ATOM     16  C16 UNL     1     -19.502 -30.304   1.618  0.00  0.00    +0.012 A 
ENDROOT
BRANCH   1  17
ATOM     17  N1  UNL     1     -23.837 -33.295   1.391  0.00  0.00    -0.341 N 
ATOM     18  H6  UNL     1     -23.315 -33.060   0.517  0.00  0.00    +0.146 HD
BRANCH  17  19
ATOM     19  C2  UNL     1     -24.309 -34.672   1.554  0.00  0.00    +0.129 C 
BRANCH  19  20
ATOM     20  C1  UNL     1     -23.278 -35.524   2.299  0.00  0.00    +0.174 C 
BRANCH  20  21
ATOM     21  O1  UNL     1     -21.983 -35.265   1.826  0.00  0.00    -0.393 OA
ATOM     22  H1  UNL     1     -21.911 -35.709   0.942  0.00  0.00    +0.209 HD
ENDBRANCH  20  21
ENDBRANCH  19  20
ENDBRANCH  17  19
ENDBRANCH   1  17
BRANCH   4  23
ATOM     23  N2  UNL     1     -25.101 -28.967   4.863  0.00  0.00    -0.341 N 
ATOM     24  H13 UNL     1     -24.825 -28.012   4.541  0.00  0.00    +0.146 HD
BRANCH  23  25
ATOM     25  C17 UNL     1     -25.874 -29.077   6.100  0.00  0.00    +0.129 C 
BRANCH  25  26
ATOM     26  C18 UNL     1     -25.216 -28.272   7.222  0.00  0.00    +0.174 C 
BRANCH  26  27
ATOM     27  O4  UNL     1     -23.849 -28.571   7.297  0.00  0.00    -0.393 OA
ATOM     28  H18 UNL     1     -23.413 -28.096   6.542  0.00  0.00    +0.209 HD
ENDBRANCH  26  27
ENDBRANCH  25  26
ENDBRANCH  23  25
ENDBRANCH   4  23
TORSDOF 8
ENDMDL
MODEL 5
REMARK minimizedAffinity -5.75955582
REMARK minimizedRMSD -1
REMARK  Name = /home/tchapet/Post-Doc/ARTICLES-DOSSIERS-DES-ARTICLES-EN-REDACTION/NOUVELS-AXES-DE-RECHERCHE-A-REGARDER-URGEMMENT/ARTICLES-EN-REDACTIONS/ARTICLE_MVOTO/Paper2_JCIM/docking_rerun/ligands/20549.pdb
REMARK  8 active torsions:
REMARK  status: ('A' for Active; 'I' for Inactive)
REMARK    1  A    between atoms: O1_1  and  C1_2
REMARK    2  A    between atoms: C1_2  and  C2_3
REMARK    3  A    between atoms: C2_3  and  N1_4
REMARK    4  A    between atoms: N1_4  and  C3_5
REMARK    5  A    between atoms: C6_8  and  N2_21
REMARK    6  A    between atoms: N2_21  and  C17_22
REMARK    7  A    between atoms: C17_22  and  C18_23
REMARK    8  A    between atoms: C18_23  and  O4_24
REMARK                            x       y       z     vdW  Elec       q    Type
REMARK                         _______ _______ _______ _____ _____    ______ ____
ROOT
ATOM      1  C3  UNL     1     -22.812 -29.761   6.892  0.00  0.00    +0.039 A 
ATOM      2  C4  UNL     1     -22.865 -30.635   7.984  0.00  0.00    +0.025 A 
ATOM      3  C5  UNL     1     -21.947 -31.666   8.116  0.00  0.00    +0.025 A 
ATOM      4  C6  UNL     1     -20.943 -31.860   7.162  0.00  0.00    +0.039 A 
ATOM      5  C7  UNL     1     -20.894 -31.021   6.016  0.00  0.00    +0.056 A 
ATOM      6  C8  UNL     1     -21.836 -29.965   5.880  0.00  0.00    +0.056 A 
ATOM      7  C9  UNL     1     -21.799 -29.120   4.647  0.00  0.00    +0.196 C 
ATOM      8  O2  UNL     1     -22.772 -28.379   4.343  0.00  0.00    -0.287 OA
ATOM      9  C10 UNL     1     -20.636 -29.185   3.737  0.00  0.00    +0.033 A 
ATOM     10  C11 UNL     1     -19.704 -30.229   3.874  0.00  0.00    +0.033 A 
ATOM     11  C12 UNL     1     -19.898 -31.247   4.925  0.00  0.00    +0.196 C 
ATOM     12  O3  UNL     1     -19.246 -32.325   4.861  0.00  0.00    -0.287 OA
ATOM     13  C13 UNL     1     -18.614 -30.306   2.988  0.00  0.00    +0.012 A 
ATOM     14  C14 UNL     1     -18.451 -29.350   1.983  0.00  0.00    +0.001 A 
ATOM     15  C15 UNL     1     -19.376 -28.314   1.848  0.00  0.00    +0.001 A 
ATOM     16  C16 UNL     1     -20.466 -28.230   2.716  0.00  0.00    +0.012 A 
ENDROOT
BRANCH   1  17
ATOM     17  N1  UNL     1     -23.705 -28.631   6.857  0.00  0.00    -0.341 N 
ATOM     18  H6  UNL     1     -23.336 -27.706   6.539  0.00  0.00    +0.146 HD
BRANCH  17  19
ATOM     19  C2  UNL     1     -25.109 -28.700   7.267  0.00  0.00    +0.129 C 
BRANCH  19  20
ATOM     20  C1  UNL     1     -25.985 -29.262   6.143  0.00  0.00    +0.174 C 
BRANCH  20  21
ATOM     21  O1  UNL     1     -25.570 -28.772   4.897  0.00  0.00    -0.393 OA
ATOM     22  H1  UNL     1     -25.876 -27.829   4.847  0.00  0.00    +0.209 HD
ENDBRANCH  20  21
ENDBRANCH  19  20
ENDBRANCH  17  19
ENDBRANCH   1  17
BRANCH   4  23
ATOM     23  N2  UNL     1     -19.938 -32.862   7.399  0.00  0.00    -0.341 N 
ATOM     24  H13 UNL     1     -19.787 -33.606   6.682  0.00  0.00    +0.146 HD
BRANCH  23  25
ATOM     25  C17 UNL     1     -19.113 -32.895   8.607  0.00  0.00    +0.129 C 
BRANCH  25  26
ATOM     26  C18 UNL     1     -17.638 -33.086   8.248  0.00  0.00    +0.174 C 
BRANCH  26  27
ATOM     27  O4  UNL     1     -17.358 -32.493   7.009  0.00  0.00    -0.393 OA
ATOM     28  H18 UNL     1     -17.313 -31.513   7.169  0.00  0.00    +0.209 HD
ENDBRANCH  26  27
ENDBRANCH  25  26
ENDBRANCH  23  25
ENDBRANCH   4  23
TORSDOF 8
ENDMDL
MODEL 6
REMARK minimizedAffinity -5.69659567
REMARK minimizedRMSD -1
REMARK  Name = /home/tchapet/Post-Doc/ARTICLES-DOSSIERS-DES-ARTICLES-EN-REDACTION/NOUVELS-AXES-DE-RECHERCHE-A-REGARDER-URGEMMENT/ARTICLES-EN-REDACTIONS/ARTICLE_MVOTO/Paper2_JCIM/docking_rerun/ligands/20549.pdb
REMARK  8 active torsions:
REMARK  status: ('A' for Active; 'I' for Inactive)
REMARK    1  A    between atoms: O1_1  and  C1_2
REMARK    2  A    between atoms: C1_2  and  C2_3
REMARK    3  A    between atoms: C2_3  and  N1_4
REMARK    4  A    between atoms: N1_4  and  C3_5
REMARK    5  A    between atoms: C6_8  and  N2_21
REMARK    6  A    between atoms: N2_21  and  C17_22
REMARK    7  A    between atoms: C17_22  and  C18_23
REMARK    8  A    between atoms: C18_23  and  O4_24
REMARK                            x       y       z     vdW  Elec       q    Type
REMARK                         _______ _______ _______ _____ _____    ______ ____
ROOT
ATOM      1  C3  UNL     1     -20.863 -33.610   1.156  0.00  0.00    +0.039 A 
ATOM      2  C4  UNL     1     -19.835 -34.321   0.527  0.00  0.00    +0.025 A 
ATOM      3  C5  UNL     1     -18.596 -33.736   0.306  0.00  0.00    +0.025 A 
ATOM      4  C6  UNL     1     -18.342 -32.420   0.707  0.00  0.00    +0.039 A 
ATOM      5  C7  UNL     1     -19.382 -31.655   1.301  0.00  0.00    +0.056 A 
ATOM      6  C8  UNL     1     -20.651 -32.254   1.527  0.00  0.00    +0.056 A 
ATOM      7  C9  UNL     1     -21.747 -31.422   2.112  0.00  0.00    +0.196 C 
ATOM      8  O2  UNL     1     -22.947 -31.805   2.059  0.00  0.00    -0.287 OA
ATOM      9  C10 UNL     1     -21.441 -30.108   2.714  0.00  0.00    +0.033 A 
ATOM     10  C11 UNL     1     -20.184 -29.517   2.493  0.00  0.00    +0.033 A 
ATOM     11  C12 UNL     1     -19.186 -30.218   1.661  0.00  0.00    +0.196 C 
ATOM     12  O3  UNL     1     -18.194 -29.573   1.222  0.00  0.00    -0.287 OA
ATOM     13  C13 UNL     1     -19.905 -28.253   3.042  0.00  0.00    +0.012 A 
ATOM     14  C14 UNL     1     -20.865 -27.589   3.810  0.00  0.00    +0.001 A 
ATOM     15  C15 UNL     1     -22.111 -28.175   4.030  0.00  0.00    +0.001 A 
ATOM     16  C16 UNL     1     -22.403 -29.427   3.484  0.00  0.00    +0.012 A 
ENDROOT
BRANCH   1  17
ATOM     17  N1  UNL     1     -22.090 -34.292   1.477  0.00  0.00    -0.341 N 
ATOM     18  H6  UNL     1     -22.592 -34.041   2.359  0.00  0.00    +0.146 HD
BRANCH  17  19
ATOM     19  C2  UNL     1     -22.669 -35.345   0.641  0.00  0.00    +0.129 C 
BRANCH  19  20
ATOM     20  C1  UNL     1     -24.087 -34.977   0.192  0.00  0.00    +0.174 C 
BRANCH  20  21
ATOM     21  O1  UNL     1     -24.487 -33.758   0.758  0.00  0.00    -0.393 OA
ATOM     22  H1  UNL     1     -24.691 -33.942   1.712  0.00  0.00    +0.209 HD
ENDBRANCH  20  21
ENDBRANCH  19  20
ENDBRANCH  17  19
ENDBRANCH   1  17
BRANCH   4  23
ATOM     23  N2  UNL     1     -17.010 -31.893   0.570  0.00  0.00    -0.341 N 
ATOM     24  H13 UNL     1     -16.856 -31.061  -0.042  0.00  0.00    +0.146 HD
BRANCH  23  25
ATOM     25  C17 UNL     1     -15.849 -32.472   1.248  0.00  0.00    +0.129 C 
BRANCH  25  26
ATOM     26  C18 UNL     1     -15.868 -32.130   2.739  0.00  0.00    +0.174 C 
BRANCH  26  27
ATOM     27  O4  UNL     1     -15.970 -30.744   2.918  0.00  0.00    -0.393 OA
ATOM     28  H18 UNL     1     -16.916 -30.503   2.732  0.00  0.00    +0.209 HD
ENDBRANCH  26  27
ENDBRANCH  25  26
ENDBRANCH  23  25
ENDBRANCH   4  23
TORSDOF 8
ENDMDL
MODEL 7
REMARK minimizedAffinity -5.69149828
REMARK minimizedRMSD -1
REMARK  Name = /home/tchapet/Post-Doc/ARTICLES-DOSSIERS-DES-ARTICLES-EN-REDACTION/NOUVELS-AXES-DE-RECHERCHE-A-REGARDER-URGEMMENT/ARTICLES-EN-REDACTIONS/ARTICLE_MVOTO/Paper2_JCIM/docking_rerun/ligands/20549.pdb
REMARK  8 active torsions:
REMARK  status: ('A' for Active; 'I' for Inactive)
REMARK    1  A    between atoms: O1_1  and  C1_2
REMARK    2  A    between atoms: C1_2  and  C2_3
REMARK    3  A    between atoms: C2_3  and  N1_4
REMARK    4  A    between atoms: N1_4  and  C3_5
REMARK    5  A    between atoms: C6_8  and  N2_21
REMARK    6  A    between atoms: N2_21  and  C17_22
REMARK    7  A    between atoms: C17_22  and  C18_23
REMARK    8  A    between atoms: C18_23  and  O4_24
REMARK                            x       y       z     vdW  Elec       q    Type
REMARK                         _______ _______ _______ _____ _____    ______ ____
ROOT
ATOM      1  C3  UNL     1      -0.136  -8.009   2.660  0.00  0.00    +0.039 A 
ATOM      2  C4  UNL     1      -0.291  -8.184   1.280  0.00  0.00    +0.025 A 
ATOM      3  C5  UNL     1       0.454  -7.436   0.379  0.00  0.00    +0.025 A 
ATOM      4  C6  UNL     1       1.379  -6.487   0.826  0.00  0.00    +0.039 A 
ATOM      5  C7  UNL     1       1.523  -6.250   2.219  0.00  0.00    +0.056 A 
ATOM      6  C8  UNL     1       0.759  -7.015   3.143  0.00  0.00    +0.056 A 
ATOM      7  C9  UNL     1       0.889  -6.722   4.603  0.00  0.00    +0.196 C 
ATOM      8  O2  UNL     1       0.037  -7.154   5.426  0.00  0.00    -0.287 OA
ATOM      9  C10 UNL     1       1.993  -5.871   5.095  0.00  0.00    +0.033 A 
ATOM     10  C11 UNL     1       2.749  -5.116   4.180  0.00  0.00    +0.033 A 
ATOM     11  C12 UNL     1       2.430  -5.183   2.740  0.00  0.00    +0.196 C 
ATOM     12  O3  UNL     1       2.897  -4.301   1.969  0.00  0.00    -0.287 OA
ATOM     13  C13 UNL     1       3.780  -4.285   4.653  0.00  0.00    +0.012 A 
ATOM     14  C14 UNL     1       4.059  -4.212   6.019  0.00  0.00    +0.001 A 
ATOM     15  C15 UNL     1       3.310  -4.962   6.926  0.00  0.00    +0.001 A 
ATOM     16  C16 UNL     1       2.279  -5.786   6.470  0.00  0.00    +0.012 A 
ENDROOT
BRANCH   1  17
ATOM     17  N1  UNL     1      -0.835  -8.890   3.560  0.00  0.00    -0.341 N 
ATOM     18  H6  UNL     1      -1.506  -8.479   4.248  0.00  0.00    +0.146 HD
BRANCH  17  19
ATOM     19  C2  UNL     1      -0.639 -10.340   3.581  0.00  0.00    +0.129 C 
BRANCH  19  20
ATOM     20  C1  UNL     1      -1.336 -10.974   4.789  0.00  0.00    +0.174 C 
BRANCH  20  21
ATOM     21  O1  UNL     1      -2.660 -10.523   4.892  0.00  0.00    -0.393 OA
ATOM     22  H1  UNL     1      -2.616  -9.592   5.235  0.00  0.00    +0.209 HD
ENDBRANCH  20  21
ENDBRANCH  19  20
ENDBRANCH  17  19
ENDBRANCH   1  17
BRANCH   4  23
ATOM     23  N2  UNL     1       2.216  -5.822  -0.137  0.00  0.00    -0.341 N 
ATOM     24  H13 UNL     1       3.241  -5.747   0.051  0.00  0.00    +0.146 HD
BRANCH  23  25
ATOM     25  C17 UNL     1       1.701  -5.237  -1.375  0.00  0.00    +0.129 C 
BRANCH  25  26
ATOM     26  C18 UNL     1       0.796  -4.041  -1.071  0.00  0.00    +0.174 C 
BRANCH  26  27
ATOM     27  O4  UNL     1       1.468  -3.118  -0.257  0.00  0.00    -0.393 OA
ATOM     28  H18 UNL     1       2.106  -2.635  -0.844  0.00  0.00    +0.209 HD
ENDBRANCH  26  27
ENDBRANCH  25  26
ENDBRANCH  23  25
ENDBRANCH   4  23
TORSDOF 8
ENDMDL
MODEL 8
REMARK minimizedAffinity -5.68272734
REMARK minimizedRMSD -1
REMARK  Name = /home/tchapet/Post-Doc/ARTICLES-DOSSIERS-DES-ARTICLES-EN-REDACTION/NOUVELS-AXES-DE-RECHERCHE-A-REGARDER-URGEMMENT/ARTICLES-EN-REDACTIONS/ARTICLE_MVOTO/Paper2_JCIM/docking_rerun/ligands/20549.pdb
REMARK  8 active torsions:
REMARK  status: ('A' for Active; 'I' for Inactive)
REMARK    1  A    between atoms: O1_1  and  C1_2
REMARK    2  A    between atoms: C1_2  and  C2_3
REMARK    3  A    between atoms: C2_3  and  N1_4
REMARK    4  A    between atoms: N1_4  and  C3_5
REMARK    5  A    between atoms: C6_8  and  N2_21
REMARK    6  A    between atoms: N2_21  and  C17_22
REMARK    7  A    between atoms: C17_22  and  C18_23
REMARK    8  A    between atoms: C18_23  and  O4_24
REMARK                            x       y       z     vdW  Elec       q    Type
REMARK                         _______ _______ _______ _____ _____    ______ ____
ROOT
ATOM      1  C3  UNL     1       0.229 -13.163   0.099  0.00  0.00    +0.039 A 
ATOM      2  C4  UNL     1       0.517 -13.265   1.465  0.00  0.00    +0.025 A 
ATOM      3  C5  UNL     1      -0.006 -12.356   2.374  0.00  0.00    +0.025 A 
ATOM      4  C6  UNL     1      -0.835 -11.313   1.949  0.00  0.00    +0.039 A 
ATOM      5  C7  UNL     1      -1.105 -11.151   0.563  0.00  0.00    +0.056 A 
ATOM      6  C8  UNL     1      -0.569 -12.083  -0.369  0.00  0.00    +0.056 A 
ATOM      7  C9  UNL     1      -0.825 -11.873  -1.826  0.00  0.00    +0.196 C 
ATOM      8  O2  UNL     1      -0.144 -12.481  -2.695  0.00  0.00    -0.287 OA
ATOM      9  C10 UNL     1      -1.849 -10.904  -2.269  0.00  0.00    +0.033 A 
ATOM     10  C11 UNL     1      -2.381  -9.985  -1.346  0.00  0.00    +0.033 A 
ATOM     11  C12 UNL     1      -1.909 -10.000   0.053  0.00  0.00    +0.196 C 
ATOM     12  O3  UNL     1      -2.155  -9.008   0.792  0.00  0.00    -0.287 OA
ATOM     13  C13 UNL     1      -3.334  -9.043  -1.775  0.00  0.00    +0.012 A 
ATOM     14  C14 UNL     1      -3.757  -9.023  -3.106  0.00  0.00    +0.001 A 
ATOM     15  C15 UNL     1      -3.230  -9.935  -4.021  0.00  0.00    +0.001 A 
ATOM     16  C16 UNL     1      -2.279 -10.870  -3.609  0.00  0.00    +0.012 A 
ENDROOT
BRANCH   1  17
ATOM     17  N1  UNL     1       0.688 -14.196  -0.792  0.00  0.00    -0.341 N 
ATOM     18  H6  UNL     1      -0.018 -14.795  -1.277  0.00  0.00    +0.146 HD
BRANCH  17  19
ATOM     19  C2  UNL     1       2.104 -14.473  -1.043  0.00  0.00    +0.129 C 
BRANCH  19  20
ATOM     20  C1  UNL     1       2.293 -15.238  -2.356  0.00  0.00    +0.174 C 
BRANCH  20  21
ATOM     21  O1  UNL     1       1.229 -14.988  -3.235  0.00  0.00    -0.393 OA
ATOM     22  H1  UNL     1       0.452 -15.500  -2.891  0.00  0.00    +0.209 HD
ENDBRANCH  20  21
ENDBRANCH  19  20
ENDBRANCH  17  19
ENDBRANCH   1  17
BRANCH   4  23
ATOM     23  N2  UNL     1      -1.454 -10.467   2.935  0.00  0.00    -0.341 N 
ATOM     24  H13 UNL     1      -2.476 -10.264   2.858  0.00  0.00    +0.146 HD
BRANCH  23  25
ATOM     25  C17 UNL     1      -0.717  -9.867   4.048  0.00  0.00    +0.129 C 
BRANCH  25  26
ATOM     26  C18 UNL     1      -1.382 -10.209   5.383  0.00  0.00    +0.174 C 
BRANCH  26  27
ATOM     27  O4  UNL     1      -2.772 -10.296   5.224  0.00  0.00    -0.393 OA
ATOM     28  H18 UNL     1      -2.952 -11.166   4.779  0.00  0.00    +0.209 HD
ENDBRANCH  26  27
ENDBRANCH  25  26
ENDBRANCH  23  25
ENDBRANCH   4  23
TORSDOF 8
ENDMDL
MODEL 9
REMARK minimizedAffinity -5.66151762
REMARK minimizedRMSD -1
REMARK  Name = /home/tchapet/Post-Doc/ARTICLES-DOSSIERS-DES-ARTICLES-EN-REDACTION/NOUVELS-AXES-DE-RECHERCHE-A-REGARDER-URGEMMENT/ARTICLES-EN-REDACTIONS/ARTICLE_MVOTO/Paper2_JCIM/docking_rerun/ligands/20549.pdb
REMARK  8 active torsions:
REMARK  status: ('A' for Active; 'I' for Inactive)
REMARK    1  A    between atoms: O1_1  and  C1_2
REMARK    2  A    between atoms: C1_2  and  C2_3
REMARK    3  A    between atoms: C2_3  and  N1_4
REMARK    4  A    between atoms: N1_4  and  C3_5
REMARK    5  A    between atoms: C6_8  and  N2_21
REMARK    6  A    between atoms: N2_21  and  C17_22
REMARK    7  A    between atoms: C17_22  and  C18_23
REMARK    8  A    between atoms: C18_23  and  O4_24
REMARK                            x       y       z     vdW  Elec       q    Type
REMARK                         _______ _______ _______ _____ _____    ______ ____
ROOT
ATOM      1  C3  UNL     1      -1.117 -11.772   5.577  0.00  0.00    +0.039 A 
ATOM      2  C4  UNL     1      -1.180 -11.147   6.828  0.00  0.00    +0.025 A 
ATOM      3  C5  UNL     1      -1.069  -9.768   6.942  0.00  0.00    +0.025 A 
ATOM      4  C6  UNL     1      -0.892  -8.966   5.809  0.00  0.00    +0.039 A 
ATOM      5  C7  UNL     1      -0.773  -9.575   4.531  0.00  0.00    +0.056 A 
ATOM      6  C8  UNL     1      -0.886 -10.987   4.414  0.00  0.00    +0.056 A 
ATOM      7  C9  UNL     1      -0.714 -11.615   3.069  0.00  0.00    +0.196 C 
ATOM      8  O2  UNL     1      -0.511 -12.854   2.956  0.00  0.00    -0.287 OA
ATOM      9  C10 UNL     1      -0.724 -10.778   1.851  0.00  0.00    +0.033 A 
ATOM     10  C11 UNL     1      -0.615  -9.380   1.968  0.00  0.00    +0.033 A 
ATOM     11  C12 UNL     1      -0.492  -8.768   3.306  0.00  0.00    +0.196 C 
ATOM     12  O3  UNL     1      -0.101  -7.572   3.397  0.00  0.00    -0.287 OA
ATOM     13  C13 UNL     1      -0.595  -8.587   0.807  0.00  0.00    +0.012 A 
ATOM     14  C14 UNL     1      -0.690  -9.178  -0.455  0.00  0.00    +0.001 A 
ATOM     15  C15 UNL     1      -0.799 -10.564  -0.571  0.00  0.00    +0.001 A 
ATOM     16  C16 UNL     1      -0.813 -11.363   0.574  0.00  0.00    +0.012 A 
ENDROOT
BRANCH   1  17
ATOM     17  N1  UNL     1      -1.361 -13.188   5.490  0.00  0.00    -0.341 N 
ATOM     18  H6  UNL     1      -2.098 -13.534   4.836  0.00  0.00    +0.146 HD
BRANCH  17  19
ATOM     19  C2  UNL     1      -0.640 -14.180   6.291  0.00  0.00    +0.129 C 
BRANCH  19  20
ATOM     20  C1  UNL     1      -1.613 -15.107   7.027  0.00  0.00    +0.174 C 
BRANCH  20  21
ATOM     21  O1  UNL     1      -2.903 -15.003   6.488  0.00  0.00    -0.393 OA
ATOM     22  H1  UNL     1      -3.274 -14.139   6.806  0.00  0.00    +0.209 HD
ENDBRANCH  20  21
ENDBRANCH  19  20
ENDBRANCH  17  19
ENDBRANCH   1  17
BRANCH   4  23
ATOM     23  N2  UNL     1      -0.905  -7.535   5.959  0.00  0.00    -0.341 N 
ATOM     24  H13 UNL     1      -1.517  -6.967   5.332  0.00  0.00    +0.146 HD
BRANCH  23  25
ATOM     25  C17 UNL     1      -0.093  -6.828   6.951  0.00  0.00    +0.129 C 
BRANCH  25  26
ATOM     26  C18 UNL     1       1.084  -6.118   6.279  0.00  0.00    +0.174 C 
BRANCH  26  27
ATOM     27  O4  UNL     1       0.629  -5.323   5.218  0.00  0.00    -0.393 OA
ATOM     28  H18 UNL     1       0.222  -4.513   5.626  0.00  0.00    +0.209 HD
ENDBRANCH  26  27
ENDBRANCH  25  26
ENDBRANCH  23  25
ENDBRANCH   4  23
TORSDOF 8
ENDMDL
