MODEL 1
REMARK minimizedAffinity -7.95406675
REMARK minimizedRMSD -1
REMARK  Name = /home/tchapet/Post-Doc/ARTICLES-DOSSIERS-DES-ARTICLES-EN-REDACTION/NOUVELS-AXES-DE-RECHERCHE-A-REGARDER-URGEMMENT/ARTICLES-EN-REDACTIONS/ARTICLE_MVOTO/Paper2_JCIM/docking_rerun/ligands/20549.pdb
REMARK  8 active torsions:
REMARK  status: ('A' for Active; 'I' for Inactive)
REMARK    1  A    between atoms: O1_1  and  C1_2
REMARK    2  A    between atoms: C1_2  and  C2_3
REMARK    3  A    between atoms: C2_3  and  N1_4
REMARK    4  A    between atoms: N1_4  and  C3_5
REMARK    5  A    between atoms: C6_8  and  N2_21
REMARK    6  A    between atoms: N2_21  and  C17_22
REMARK    7  A    between atoms: C17_22  and  C18_23
REMARK    8  A    between atoms: C18_23  and  O4_24
REMARK                            x       y       z     vdW  Elec       q    Type
REMARK                         _______ _______ _______ _____ _____    ______ ____
ROOT
ATOM      1  C3  UNL     1     -11.351  14.028  28.563  0.00  0.00    +0.039 A 
ATOM      2  C4  UNL     1     -11.020  14.034  27.203  0.00  0.00    +0.025 A 
ATOM      3  C5  UNL     1     -10.046  14.891  26.710  0.00  0.00    +0.025 A 
ATOM      4  C6  UNL     1      -9.369  15.771  27.560  0.00  0.00    +0.039 A 
ATOM      5  C7  UNL     1      -9.717  15.825  28.936  0.00  0.00    +0.056 A 
ATOM      6  C8  UNL     1     -10.716  14.948  29.441  0.00  0.00    +0.056 A 
ATOM      7  C9  UNL     1     -11.103  15.048  30.882  0.00  0.00    +0.196 C 
ATOM      8  O2  UNL     1     -12.164  14.515  31.303  0.00  0.00    -0.287 OA
ATOM      9  C10 UNL     1     -10.268  15.824  31.822  0.00  0.00    +0.033 A 
ATOM     10  C11 UNL     1      -9.279  16.690  31.322  0.00  0.00    +0.033 A 
ATOM     11  C12 UNL     1      -9.086  16.812  29.863  0.00  0.00    +0.196 C 
ATOM     12  O3  UNL     1      -8.423  17.786  29.414  0.00  0.00    -0.287 OA
ATOM     13  C13 UNL     1      -8.505  17.450  32.218  0.00  0.00    +0.012 A 
ATOM     14  C14 UNL     1      -8.711  17.344  33.595  0.00  0.00    +0.001 A 
ATOM     15  C15 UNL     1      -9.691  16.484  34.091  0.00  0.00    +0.001 A 
ATOM     16  C16 UNL     1     -10.470  15.729  33.212  0.00  0.00    +0.012 A 
ENDROOT
BRANCH   1  17
ATOM     17  N1  UNL     1     -12.276  13.039  29.053  0.00  0.00    -0.341 N 
ATOM     18  H6  UNL     1     -11.946  12.347  29.763  0.00  0.00    +0.146 HD
BRANCH  17  19
ATOM     19  C2  UNL     1     -13.662  12.934  28.592  0.00  0.00    +0.129 C 
BRANCH  19  20
ATOM     20  C1  UNL     1     -14.347  14.305  28.584  0.00  0.00    +0.174 C 
BRANCH  20  21
ATOM     21  O1  UNL     1     -14.673  14.705  29.888  0.00  0.00    -0.393 OA
ATOM     22  H1  UNL     1     -15.459  14.163  30.162  0.00  0.00    +0.209 HD
ENDBRANCH  20  21
ENDBRANCH  19  20
ENDBRANCH  17  19
ENDBRANCH   1  17
BRANCH   4  23
ATOM     23  N2  UNL     1      -8.283  16.554  27.032  0.00  0.00    -0.341 N 
ATOM     24  H13 UNL     1      -7.346  16.492  27.490  0.00  0.00    +0.146 HD
BRANCH  23  25
ATOM     25  C17 UNL     1      -8.426  17.442  25.878  0.00  0.00    +0.129 C 
BRANCH  25  26
ATOM     26  C18 UNL     1      -9.596  18.406  26.081  0.00  0.00    +0.174 C 
BRANCH  26  27
ATOM     27  O4  UNL     1      -9.282  19.352  27.066  0.00  0.00    -0.393 OA
ATOM     28  H18 UNL     1      -8.665  20.006  26.644  0.00  0.00    +0.209 HD
ENDBRANCH  26  27
ENDBRANCH  25  26
ENDBRANCH  23  25
ENDBRANCH   4  23
TORSDOF 8
ENDMDL
MODEL 2
REMARK minimizedAffinity -7.7521143
REMARK minimizedRMSD -1
REMARK  Name = /home/tchapet/Post-Doc/ARTICLES-DOSSIERS-DES-ARTICLES-EN-REDACTION/NOUVELS-AXES-DE-RECHERCHE-A-REGARDER-URGEMMENT/ARTICLES-EN-REDACTIONS/ARTICLE_MVOTO/Paper2_JCIM/docking_rerun/ligands/20549.pdb
REMARK  8 active torsions:
REMARK  status: ('A' for Active; 'I' for Inactive)
REMARK    1  A    between atoms: O1_1  and  C1_2
REMARK    2  A    between atoms: C1_2  and  C2_3
REMARK    3  A    between atoms: C2_3  and  N1_4
REMARK    4  A    between atoms: N1_4  and  C3_5
REMARK    5  A    between atoms: C6_8  and  N2_21
REMARK    6  A    between atoms: N2_21  and  C17_22
REMARK    7  A    between atoms: C17_22  and  C18_23
REMARK    8  A    between atoms: C18_23  and  O4_24
REMARK                            x       y       z     vdW  Elec       q    Type
REMARK                         _______ _______ _______ _____ _____    ______ ____
ROOT
ATOM      1  C3  UNL     1      -9.202  15.875  27.377  0.00  0.00    +0.039 A 
ATOM      2  C4  UNL     1      -9.950  15.138  26.452  0.00  0.00    +0.025 A 
ATOM      3  C5  UNL     1     -10.984  14.311  26.868  0.00  0.00    +0.025 A 
ATOM      4  C6  UNL     1     -11.306  14.192  28.224  0.00  0.00    +0.039 A 
ATOM      5  C7  UNL     1     -10.533  14.888  29.192  0.00  0.00    +0.056 A 
ATOM      6  C8  UNL     1      -9.473  15.734  28.766  0.00  0.00    +0.056 A 
ATOM      7  C9  UNL     1      -8.641  16.424  29.799  0.00  0.00    +0.196 C 
ATOM      8  O2  UNL     1      -7.530  16.936  29.496  0.00  0.00    -0.287 OA
ATOM      9  C10 UNL     1      -9.087  16.464  31.207  0.00  0.00    +0.033 A 
ATOM     10  C11 UNL     1     -10.138  15.628  31.627  0.00  0.00    +0.033 A 
ATOM     11  C12 UNL     1     -10.780  14.720  30.656  0.00  0.00    +0.196 C 
ATOM     12  O3  UNL     1     -11.501  13.777  31.084  0.00  0.00    -0.287 OA
ATOM     13  C13 UNL     1     -10.542  15.646  32.974  0.00  0.00    +0.012 A 
ATOM     14  C14 UNL     1      -9.913  16.493  33.890  0.00  0.00    +0.001 A 
ATOM     15  C15 UNL     1      -8.872  17.323  33.472  0.00  0.00    +0.001 A 
ATOM     16  C16 UNL     1      -8.456  17.309  32.139  0.00  0.00    +0.012 A 
ENDROOT
BRANCH   1  17
ATOM     17  N1  UNL     1      -8.222  16.814  26.896  0.00  0.00    -0.341 N 
ATOM     18  H6  UNL     1      -7.233  16.498  26.784  0.00  0.00    +0.146 HD
BRANCH  17  19
ATOM     19  C2  UNL     1      -8.533  18.207  26.571  0.00  0.00    +0.129 C 
BRANCH  19  20
ATOM     20  C1  UNL     1     -10.029  18.391  26.301  0.00  0.00    +0.174 C 
BRANCH  20  21
ATOM     21  O1  UNL     1     -10.622  19.175  27.301  0.00  0.00    -0.393 OA
ATOM     22  H1  UNL     1     -10.701  18.598  28.104  0.00  0.00    +0.209 HD
ENDBRANCH  20  21
ENDBRANCH  19  20
ENDBRANCH  17  19
ENDBRANCH   1  17
BRANCH   4  23
ATOM     23  N2  UNL     1     -12.461  13.421  28.602  0.00  0.00    -0.341 N 
ATOM     24  H13 UNL     1     -12.324  12.534  29.135  0.00  0.00    +0.146 HD
BRANCH  23  25
ATOM     25  C17 UNL     1     -13.830  13.819  28.271  0.00  0.00    +0.129 C 
BRANCH  25  26
ATOM     26  C18 UNL     1     -14.179  15.154  28.930  0.00  0.00    +0.174 C 
BRANCH  26  27
ATOM     27  O4  UNL     1     -14.216  15.013  30.324  0.00  0.00    -0.393 OA
ATOM     28  H18 UNL     1     -13.272  14.976  30.630  0.00  0.00    +0.209 HD
ENDBRANCH  26  27
ENDBRANCH  25  26
ENDBRANCH  23  25
ENDBRANCH   4  23
TORSDOF 8
ENDMDL
MODEL 3
REMARK minimizedAffinity -7.68064404
REMARK minimizedRMSD -1
REMARK  Name = /home/tchapet/Post-Doc/ARTICLES-DOSSIERS-DES-ARTICLES-EN-REDACTION/NOUVELS-AXES-DE-RECHERCHE-A-REGARDER-URGEMMENT/ARTICLES-EN-REDACTIONS/ARTICLE_MVOTO/Paper2_JCIM/docking_rerun/ligands/20549.pdb
REMARK  8 active torsions:
REMARK  status: ('A' for Active; 'I' for Inactive)
REMARK    1  A    between atoms: O1_1  and  C1_2
REMARK    2  A    between atoms: C1_2  and  C2_3
REMARK    3  A    between atoms: C2_3  and  N1_4
REMARK    4  A    between atoms: N1_4  and  C3_5
REMARK    5  A    between atoms: C6_8  and  N2_21
REMARK    6  A    between atoms: N2_21  and  C17_22
REMARK    7  A    between atoms: C17_22  and  C18_23
REMARK    8  A    between atoms: C18_23  and  O4_24
REMARK                            x       y       z     vdW  Elec       q    Type
REMARK                         _______ _______ _______ _____ _____    ______ ____
ROOT
ATOM      1  C3  UNL     1      -6.138  18.515  26.023  0.00  0.00    +0.039 A 
ATOM      2  C4  UNL     1      -6.067  18.455  27.420  0.00  0.00    +0.025 A 
ATOM      3  C5  UNL     1      -7.106  17.911  28.163  0.00  0.00    +0.025 A 
ATOM      4  C6  UNL     1      -8.251  17.409  27.537  0.00  0.00    +0.039 A 
ATOM      5  C7  UNL     1      -8.375  17.501  26.124  0.00  0.00    +0.056 A 
ATOM      6  C8  UNL     1      -7.312  18.059  25.362  0.00  0.00    +0.056 A 
ATOM      7  C9  UNL     1      -7.477  18.190  23.882  0.00  0.00    +0.196 C 
ATOM      8  O2  UNL     1      -6.710  18.931  23.211  0.00  0.00    -0.287 OA
ATOM      9  C10 UNL     1      -8.582  17.493  23.194  0.00  0.00    +0.033 A 
ATOM     10  C11 UNL     1      -9.632  16.939  23.948  0.00  0.00    +0.033 A 
ATOM     11  C12 UNL     1      -9.617  17.063  25.420  0.00  0.00    +0.196 C 
ATOM     12  O3  UNL     1     -10.678  16.838  26.063  0.00  0.00    -0.287 OA
ATOM     13  C13 UNL     1     -10.699  16.301  23.289  0.00  0.00    +0.012 A 
ATOM     14  C14 UNL     1     -10.714  16.209  21.896  0.00  0.00    +0.001 A 
ATOM     15  C15 UNL     1      -9.673  16.757  21.148  0.00  0.00    +0.001 A 
ATOM     16  C16 UNL     1      -8.612  17.399  21.789  0.00  0.00    +0.012 A 
ENDROOT
BRANCH   1  17
ATOM     17  N1  UNL     1      -4.990  18.971  25.284  0.00  0.00    -0.341 N 
ATOM     18  H6  UNL     1      -5.024  19.911  24.828  0.00  0.00    +0.146 HD
BRANCH  17  19
ATOM     19  C2  UNL     1      -3.773  18.175  25.113  0.00  0.00    +0.129 C 
BRANCH  19  20
ATOM     20  C1  UNL     1      -3.269  18.239  23.668  0.00  0.00    +0.174 C 
BRANCH  20  21
ATOM     21  O1  UNL     1      -2.686  19.485  23.400  0.00  0.00    -0.393 OA
ATOM     22  H1  UNL     1      -3.431  20.135  23.312  0.00  0.00    +0.209 HD
ENDBRANCH  20  21
ENDBRANCH  19  20
ENDBRANCH  17  19
ENDBRANCH   1  17
BRANCH   4  23
ATOM     23  N2  UNL     1      -9.247  16.744  28.334  0.00  0.00    -0.341 N 
ATOM     24  H13 UNL     1      -9.550  15.781  28.065  0.00  0.00    +0.146 HD
BRANCH  23  25
ATOM     25  C17 UNL     1      -9.868  17.355  29.510  0.00  0.00    +0.129 C 
BRANCH  25  26
ATOM     26  C18 UNL     1     -11.320  17.737  29.217  0.00  0.00    +0.174 C 
BRANCH  26  27
ATOM     27  O4  UNL     1     -11.372  18.738  28.237  0.00  0.00    -0.393 OA
ATOM     28  H18 UNL     1     -11.191  18.292  27.368  0.00  0.00    +0.209 HD
ENDBRANCH  26  27
ENDBRANCH  25  26
ENDBRANCH  23  25
ENDBRANCH   4  23
TORSDOF 8
ENDMDL
MODEL 4
REMARK minimizedAffinity -7.54466915
REMARK minimizedRMSD -1
REMARK  Name = /home/tchapet/Post-Doc/ARTICLES-DOSSIERS-DES-ARTICLES-EN-REDACTION/NOUVELS-AXES-DE-RECHERCHE-A-REGARDER-URGEMMENT/ARTICLES-EN-REDACTIONS/ARTICLE_MVOTO/Paper2_JCIM/docking_rerun/ligands/20549.pdb
REMARK  8 active torsions:
REMARK  status: ('A' for Active; 'I' for Inactive)
REMARK    1  A    between atoms: O1_1  and  C1_2
REMARK    2  A    between atoms: C1_2  and  C2_3
REMARK    3  A    between atoms: C2_3  and  N1_4
REMARK    4  A    between atoms: N1_4  and  C3_5
REMARK    5  A    between atoms: C6_8  and  N2_21
REMARK    6  A    between atoms: N2_21  and  C17_22
REMARK    7  A    between atoms: C17_22  and  C18_23
REMARK    8  A    between atoms: C18_23  and  O4_24
REMARK                            x       y       z     vdW  Elec       q    Type
REMARK                         _______ _______ _______ _____ _____    ______ ____
ROOT
ATOM      1  C3  UNL     1      -8.152  16.866  27.521  0.00  0.00    +0.039 A 
ATOM      2  C4  UNL     1      -7.019  17.368  28.171  0.00  0.00    +0.025 A 
ATOM      3  C5  UNL     1      -5.972  17.925  27.449  0.00  0.00    +0.025 A 
ATOM      4  C6  UNL     1      -6.022  17.999  26.054  0.00  0.00    +0.039 A 
ATOM      5  C7  UNL     1      -7.136  17.451  25.362  0.00  0.00    +0.056 A 
ATOM      6  C8  UNL     1      -8.208  16.880  26.101  0.00  0.00    +0.056 A 
ATOM      7  C9  UNL     1      -9.352  16.268  25.357  0.00  0.00    +0.196 C 
ATOM      8  O2  UNL     1     -10.165  15.502  25.940  0.00  0.00    -0.287 OA
ATOM      9  C10 UNL     1      -9.510  16.512  23.908  0.00  0.00    +0.033 A 
ATOM     10  C11 UNL     1      -8.450  17.079  23.178  0.00  0.00    +0.033 A 
ATOM     11  C12 UNL     1      -7.191  17.424  23.869  0.00  0.00    +0.196 C 
ATOM     12  O3  UNL     1      -6.158  17.648  23.181  0.00  0.00    -0.287 OA
ATOM     13  C13 UNL     1      -8.592  17.284  21.794  0.00  0.00    +0.012 A 
ATOM     14  C14 UNL     1      -9.779  16.934  21.146  0.00  0.00    +0.001 A 
ATOM     15  C15 UNL     1     -10.831  16.372  21.870  0.00  0.00    +0.001 A 
ATOM     16  C16 UNL     1     -10.700  16.158  23.244  0.00  0.00    +0.012 A 
ENDROOT
BRANCH   1  17
ATOM     17  N1  UNL     1      -9.267  16.411  28.311  0.00  0.00    -0.341 N 
ATOM     18  H6  UNL     1      -9.609  15.431  28.185  0.00  0.00    +0.146 HD
BRANCH  17  19
ATOM     19  C2  UNL     1      -9.970  17.259  29.276  0.00  0.00    +0.129 C 
BRANCH  19  20
ATOM     20  C1  UNL     1     -11.388  17.583  28.796  0.00  0.00    +0.174 C 
BRANCH  20  21
ATOM     21  O1  UNL     1     -11.420  18.825  28.146  0.00  0.00    -0.393 OA
ATOM     22  H1  UNL     1     -11.356  19.518  28.854  0.00  0.00    +0.209 HD
ENDBRANCH  20  21
ENDBRANCH  19  20
ENDBRANCH  17  19
ENDBRANCH   1  17
BRANCH   4  23
ATOM     23  N2  UNL     1      -4.974  18.692  25.354  0.00  0.00    -0.341 N 
ATOM     24  H13 UNL     1      -5.178  19.628  24.936  0.00  0.00    +0.146 HD
BRANCH  23  25
ATOM     25  C17 UNL     1      -3.625  18.148  25.192  0.00  0.00    +0.129 C 
BRANCH  25  26
ATOM     26  C18 UNL     1      -2.808  19.007  24.226  0.00  0.00    +0.174 C 
BRANCH  26  27
ATOM     27  O4  UNL     1      -3.553  19.282  23.071  0.00  0.00    -0.393 OA
ATOM     28  H18 UNL     1      -4.212  19.982  23.320  0.00  0.00    +0.209 HD
ENDBRANCH  26  27
ENDBRANCH  25  26
ENDBRANCH  23  25
ENDBRANCH   4  23
TORSDOF 8
ENDMDL
MODEL 5
REMARK minimizedAffinity -7.34657288
REMARK minimizedRMSD -1
REMARK  Name = /home/tchapet/Post-Doc/ARTICLES-DOSSIERS-DES-ARTICLES-EN-REDACTION/NOUVELS-AXES-DE-RECHERCHE-A-REGARDER-URGEMMENT/ARTICLES-EN-REDACTIONS/ARTICLE_MVOTO/Paper2_JCIM/docking_rerun/ligands/20549.pdb
REMARK  8 active torsions:
REMARK  status: ('A' for Active; 'I' for Inactive)
REMARK    1  A    between atoms: O1_1  and  C1_2
REMARK    2  A    between atoms: C1_2  and  C2_3
REMARK    3  A    between atoms: C2_3  and  N1_4
REMARK    4  A    between atoms: N1_4  and  C3_5
REMARK    5  A    between atoms: C6_8  and  N2_21
REMARK    6  A    between atoms: N2_21  and  C17_22
REMARK    7  A    between atoms: C17_22  and  C18_23
REMARK    8  A    between atoms: C18_23  and  O4_24
REMARK                            x       y       z     vdW  Elec       q    Type
REMARK                         _______ _______ _______ _____ _____    ______ ____
ROOT
ATOM      1  C3  UNL     1     -12.908  13.504  29.524  0.00  0.00    +0.039 A 
ATOM      2  C4  UNL     1     -12.747  13.125  28.186  0.00  0.00    +0.025 A 
ATOM      3  C5  UNL     1     -11.653  13.558  27.449  0.00  0.00    +0.025 A 
ATOM      4  C6  UNL     1     -10.683  14.385  28.024  0.00  0.00    +0.039 A 
ATOM      5  C7  UNL     1     -10.844  14.829  29.364  0.00  0.00    +0.056 A 
ATOM      6  C8  UNL     1     -11.965  14.387  30.119  0.00  0.00    +0.056 A 
ATOM      7  C9  UNL     1     -12.144  14.899  31.512  0.00  0.00    +0.196 C 
ATOM      8  O2  UNL     1     -13.248  14.778  32.107  0.00  0.00    -0.287 OA
ATOM      9  C10 UNL     1     -11.038  15.606  32.191  0.00  0.00    +0.033 A 
ATOM     10  C11 UNL     1      -9.929  16.041  31.443  0.00  0.00    +0.033 A 
ATOM     11  C12 UNL     1      -9.883  15.786  29.990  0.00  0.00    +0.196 C 
ATOM     12  O3  UNL     1      -9.054  16.422  29.283  0.00  0.00    -0.287 OA
ATOM     13  C13 UNL     1      -8.891  16.740  32.086  0.00  0.00    +0.012 A 
ATOM     14  C14 UNL     1      -8.954  16.996  33.458  0.00  0.00    +0.001 A 
ATOM     15  C15 UNL     1     -10.054  16.563  34.199  0.00  0.00    +0.001 A 
ATOM     16  C16 UNL     1     -11.094  15.874  33.571  0.00  0.00    +0.012 A 
ENDROOT
BRANCH   1  17
ATOM     17  N1  UNL     1     -13.987  12.934  30.287  0.00  0.00    -0.341 N 
ATOM     18  H6  UNL     1     -14.706  13.572  30.699  0.00  0.00    +0.146 HD
BRANCH  17  19
ATOM     19  C2  UNL     1     -14.124  11.499  30.542  0.00  0.00    +0.129 C 
BRANCH  19  20
ATOM     20  C1  UNL     1     -12.923  10.960  31.324  0.00  0.00    +0.174 C 
BRANCH  20  21
ATOM     21  O1  UNL     1     -12.118  10.154  30.506  0.00  0.00    -0.393 OA
ATOM     22  H1  UNL     1     -12.601   9.295  30.391  0.00  0.00    +0.209 HD
ENDBRANCH  20  21
ENDBRANCH  19  20
ENDBRANCH  17  19
ENDBRANCH   1  17
BRANCH   4  23
ATOM     23  N2  UNL     1      -9.505  14.710  27.264  0.00  0.00    -0.341 N 
ATOM     24  H13 UNL     1      -8.566  14.546  27.692  0.00  0.00    +0.146 HD
BRANCH  23  25
ATOM     25  C17 UNL     1      -9.555  15.268  25.912  0.00  0.00    +0.129 C 
BRANCH  25  26
ATOM     26  C18 UNL     1      -9.845  16.770  25.958  0.00  0.00    +0.174 C 
BRANCH  26  27
ATOM     27  O4  UNL     1     -11.092  17.041  25.379  0.00  0.00    -0.393 OA
ATOM     28  H18 UNL     1     -11.778  16.770  26.044  0.00  0.00    +0.209 HD
ENDBRANCH  26  27
ENDBRANCH  25  26
ENDBRANCH  23  25
ENDBRANCH   4  23
TORSDOF 8
ENDMDL
MODEL 6
REMARK minimizedAffinity -7.1324811
REMARK minimizedRMSD -1
REMARK  Name = /home/tchapet/Post-Doc/ARTICLES-DOSSIERS-DES-ARTICLES-EN-REDACTION/NOUVELS-AXES-DE-RECHERCHE-A-REGARDER-URGEMMENT/ARTICLES-EN-REDACTIONS/ARTICLE_MVOTO/Paper2_JCIM/docking_rerun/ligands/20549.pdb
REMARK  8 active torsions:
REMARK  status: ('A' for Active; 'I' for Inactive)
REMARK    1  A    between atoms: O1_1  and  C1_2
REMARK    2  A    between atoms: C1_2  and  C2_3
REMARK    3  A    between atoms: C2_3  and  N1_4
REMARK    4  A    between atoms: N1_4  and  C3_5
REMARK    5  A    between atoms: C6_8  and  N2_21
REMARK    6  A    between atoms: N2_21  and  C17_22
REMARK    7  A    between atoms: C17_22  and  C18_23
REMARK    8  A    between atoms: C18_23  and  O4_24
REMARK                            x       y       z     vdW  Elec       q    Type
REMARK                         _______ _______ _______ _____ _____    ______ ____
ROOT
ATOM      1  C3  UNL     1     -11.965  14.829  33.473  0.00  0.00    +0.039 A 
ATOM      2  C4  UNL     1     -11.035  15.674  34.089  0.00  0.00    +0.025 A 
ATOM      3  C5  UNL     1      -9.961  16.191  33.378  0.00  0.00    +0.025 A 
ATOM      4  C6  UNL     1      -9.780  15.882  32.026  0.00  0.00    +0.039 A 
ATOM      5  C7  UNL     1     -10.679  14.986  31.385  0.00  0.00    +0.056 A 
ATOM      6  C8  UNL     1     -11.778  14.456  32.114  0.00  0.00    +0.056 A 
ATOM      7  C9  UNL     1     -12.688  13.481  31.439  0.00  0.00    +0.196 C 
ATOM      8  O2  UNL     1     -13.483  12.769  32.109  0.00  0.00    -0.287 OA
ATOM      9  C10 UNL     1     -12.627  13.300  29.973  0.00  0.00    +0.033 A 
ATOM     10  C11 UNL     1     -11.540  13.827  29.253  0.00  0.00    +0.033 A 
ATOM     11  C12 UNL     1     -10.474  14.555  29.970  0.00  0.00    +0.196 C 
ATOM     12  O3  UNL     1      -9.376  14.763  29.385  0.00  0.00    -0.287 OA
ATOM     13  C13 UNL     1     -11.468  13.629  27.862  0.00  0.00    +0.012 A 
ATOM     14  C14 UNL     1     -12.471  12.921  27.196  0.00  0.00    +0.001 A 
ATOM     15  C15 UNL     1     -13.549  12.399  27.911  0.00  0.00    +0.001 A 
ATOM     16  C16 UNL     1     -13.629  12.583  29.293  0.00  0.00    +0.012 A 
ENDROOT
BRANCH   1  17
ATOM     17  N1  UNL     1     -13.130  14.415  34.211  0.00  0.00    -0.341 N 
ATOM     18  H6  UNL     1     -14.073  14.726  33.883  0.00  0.00    +0.146 HD
BRANCH  17  19
ATOM     19  C2  UNL     1     -13.067  13.594  35.421  0.00  0.00    +0.129 C 
BRANCH  19  20
ATOM     20  C1  UNL     1     -11.921  12.581  35.342  0.00  0.00    +0.174 C 
BRANCH  20  21
ATOM     21  O1  UNL     1     -12.221  11.560  34.430  0.00  0.00    -0.393 OA
ATOM     22  H1  UNL     1     -12.889  10.973  34.871  0.00  0.00    +0.209 HD
ENDBRANCH  20  21
ENDBRANCH  19  20
ENDBRANCH  17  19
ENDBRANCH   1  17
BRANCH   4  23
ATOM     23  N2  UNL     1      -8.726  16.535  31.296  0.00  0.00    -0.341 N 
ATOM     24  H13 UNL     1      -7.837  16.016  31.120  0.00  0.00    +0.146 HD
BRANCH  23  25
ATOM     25  C17 UNL     1      -8.837  17.902  30.785  0.00  0.00    +0.129 C 
BRANCH  25  26
ATOM     26  C18 UNL     1      -8.619  17.931  29.270  0.00  0.00    +0.174 C 
BRANCH  26  27
ATOM     27  O4  UNL     1      -9.849  17.864  28.602  0.00  0.00    -0.393 OA
ATOM     28  H18 UNL     1     -10.262  18.765  28.677  0.00  0.00    +0.209 HD
ENDBRANCH  26  27
ENDBRANCH  25  26
ENDBRANCH  23  25
ENDBRANCH   4  23
TORSDOF 8
ENDMDL
MODEL 7
REMARK minimizedAffinity -6.90905762
REMARK minimizedRMSD -1
REMARK  Name = /home/tchapet/Post-Doc/ARTICLES-DOSSIERS-DES-ARTICLES-EN-REDACTION/NOUVELS-AXES-DE-RECHERCHE-A-REGARDER-URGEMMENT/ARTICLES-EN-REDACTIONS/ARTICLE_MVOTO/Paper2_JCIM/docking_rerun/ligands/20549.pdb
REMARK  8 active torsions:
REMARK  status: ('A' for Active; 'I' for Inactive)
REMARK    1  A    between atoms: O1_1  and  C1_2
REMARK    2  A    between atoms: C1_2  and  C2_3
REMARK    3  A    between atoms: C2_3  and  N1_4
REMARK    4  A    between atoms: N1_4  and  C3_5
REMARK    5  A    between atoms: C6_8  and  N2_21
REMARK    6  A    between atoms: N2_21  and  C17_22
REMARK    7  A    between atoms: C17_22  and  C18_23
REMARK    8  A    between atoms: C18_23  and  O4_24
REMARK                            x       y       z     vdW  Elec       q    Type
REMARK                         _______ _______ _______ _____ _____    ______ ____
ROOT
ATOM      1  C3  UNL     1      -8.516  16.319  29.213  0.00  0.00    +0.039 A 
ATOM      2  C4  UNL     1      -8.063  17.068  30.305  0.00  0.00    +0.025 A 
ATOM      3  C5  UNL     1      -8.783  17.107  31.491  0.00  0.00    +0.025 A 
ATOM      4  C6  UNL     1      -9.982  16.398  31.626  0.00  0.00    +0.039 A 
ATOM      5  C7  UNL     1     -10.495  15.671  30.518  0.00  0.00    +0.056 A 
ATOM      6  C8  UNL     1      -9.757  15.632  29.303  0.00  0.00    +0.056 A 
ATOM      7  C9  UNL     1     -10.332  14.899  28.134  0.00  0.00    +0.196 C 
ATOM      8  O2  UNL     1      -9.876  15.077  26.973  0.00  0.00    -0.287 OA
ATOM      9  C10 UNL     1     -11.485  13.993  28.319  0.00  0.00    +0.033 A 
ATOM     10  C11 UNL     1     -12.213  14.031  29.522  0.00  0.00    +0.033 A 
ATOM     11  C12 UNL     1     -11.815  14.975  30.586  0.00  0.00    +0.196 C 
ATOM     12  O3  UNL     1     -12.625  15.218  31.522  0.00  0.00    -0.287 OA
ATOM     13  C13 UNL     1     -13.328  13.189  29.685  0.00  0.00    +0.012 A 
ATOM     14  C14 UNL     1     -13.708  12.315  28.664  0.00  0.00    +0.001 A 
ATOM     15  C15 UNL     1     -12.986  12.277  27.472  0.00  0.00    +0.001 A 
ATOM     16  C16 UNL     1     -11.882  13.113  27.295  0.00  0.00    +0.012 A 
ENDROOT
BRANCH   1  17
ATOM     17  N1  UNL     1      -7.679  16.206  28.047  0.00  0.00    -0.341 N 
ATOM     18  H6  UNL     1      -7.704  15.321  27.492  0.00  0.00    +0.146 HD
BRANCH  17  19
ATOM     19  C2  UNL     1      -6.768  17.263  27.603  0.00  0.00    +0.129 C 
BRANCH  19  20
ATOM     20  C1  UNL     1      -7.168  17.792  26.222  0.00  0.00    +0.174 C 
BRANCH  20  21
ATOM     21  O1  UNL     1      -8.283  17.100  25.728  0.00  0.00    -0.393 OA
ATOM     22  H1  UNL     1      -7.959  16.207  25.442  0.00  0.00    +0.209 HD
ENDBRANCH  20  21
ENDBRANCH  19  20
ENDBRANCH  17  19
ENDBRANCH   1  17
BRANCH   4  23
ATOM     23  N2  UNL     1     -10.633  16.366  32.908  0.00  0.00    -0.341 N 
ATOM     24  H13 UNL     1     -11.476  16.964  33.062  0.00  0.00    +0.146 HD
BRANCH  23  25
ATOM     25  C17 UNL     1     -10.167  15.536  34.020  0.00  0.00    +0.129 C 
BRANCH  25  26
ATOM     26  C18 UNL     1     -11.300  14.651  34.544  0.00  0.00    +0.174 C 
BRANCH  26  27
ATOM     27  O4  UNL     1     -12.451  15.418  34.769  0.00  0.00    -0.393 OA
ATOM     28  H18 UNL     1     -12.849  15.599  33.877  0.00  0.00    +0.209 HD
ENDBRANCH  26  27
ENDBRANCH  25  26
ENDBRANCH  23  25
ENDBRANCH   4  23
TORSDOF 8
ENDMDL
MODEL 8
REMARK minimizedAffinity -6.83634281
REMARK minimizedRMSD -1
REMARK  Name = /home/tchapet/Post-Doc/ARTICLES-DOSSIERS-DES-ARTICLES-EN-REDACTION/NOUVELS-AXES-DE-RECHERCHE-A-REGARDER-URGEMMENT/ARTICLES-EN-REDACTIONS/ARTICLE_MVOTO/Paper2_JCIM/docking_rerun/ligands/20549.pdb
REMARK  8 active torsions:
REMARK  status: ('A' for Active; 'I' for Inactive)
REMARK    1  A    between atoms: O1_1  and  C1_2
REMARK    2  A    between atoms: C1_2  and  C2_3
REMARK    3  A    between atoms: C2_3  and  N1_4
REMARK    4  A    between atoms: N1_4  and  C3_5
REMARK    5  A    between atoms: C6_8  and  N2_21
REMARK    6  A    between atoms: N2_21  and  C17_22
REMARK    7  A    between atoms: C17_22  and  C18_23
REMARK    8  A    between atoms: C18_23  and  O4_24
REMARK                            x       y       z     vdW  Elec       q    Type
REMARK                         _______ _______ _______ _____ _____    ______ ____
ROOT
ATOM      1  C3  UNL     1      -9.669  15.463  31.007  0.00  0.00    +0.039 A 
ATOM      2  C4  UNL     1     -10.692  14.673  31.544  0.00  0.00    +0.025 A 
ATOM      3  C5  UNL     1     -11.508  13.908  30.722  0.00  0.00    +0.025 A 
ATOM      4  C6  UNL     1     -11.328  13.906  29.335  0.00  0.00    +0.039 A 
ATOM      5  C7  UNL     1     -10.332  14.736  28.755  0.00  0.00    +0.056 A 
ATOM      6  C8  UNL     1      -9.497  15.521  29.597  0.00  0.00    +0.056 A 
ATOM      7  C9  UNL     1      -8.483  16.422  28.969  0.00  0.00    +0.196 C 
ATOM      8  O2  UNL     1      -7.934  17.339  29.636  0.00  0.00    -0.287 OA
ATOM      9  C10 UNL     1      -8.152  16.284  27.535  0.00  0.00    +0.033 A 
ATOM     10  C11 UNL     1      -8.977  15.505  26.704  0.00  0.00    +0.033 A 
ATOM     11  C12 UNL     1     -10.164  14.836  27.274  0.00  0.00    +0.196 C 
ATOM     12  O3  UNL     1     -11.051  14.395  26.493  0.00  0.00    -0.287 OA
ATOM     13  C13 UNL     1      -8.678  15.398  25.333  0.00  0.00    +0.012 A 
ATOM     14  C14 UNL     1      -7.565  16.053  24.800  0.00  0.00    +0.001 A 
ATOM     15  C15 UNL     1      -6.747  16.824  25.625  0.00  0.00    +0.001 A 
ATOM     16  C16 UNL     1      -7.037  16.944  26.986  0.00  0.00    +0.012 A 
ENDROOT
BRANCH   1  17
ATOM     17  N1  UNL     1      -8.768  16.143  31.901  0.00  0.00    -0.341 N 
ATOM     18  H6  UNL     1      -7.764  15.854  31.923  0.00  0.00    +0.146 HD
BRANCH  17  19
ATOM     19  C2  UNL     1      -9.188  17.214  32.807  0.00  0.00    +0.129 C 
BRANCH  19  20
ATOM     20  C1  UNL     1      -9.407  16.683  34.226  0.00  0.00    +0.174 C 
BRANCH  20  21
ATOM     21  O1  UNL     1     -10.716  16.942  34.658  0.00  0.00    -0.393 OA
ATOM     22  H1  UNL     1     -10.758  17.911  34.869  0.00  0.00    +0.209 HD
ENDBRANCH  20  21
ENDBRANCH  19  20
ENDBRANCH  17  19
ENDBRANCH   1  17
BRANCH   4  23
ATOM     23  N2  UNL     1     -12.113  13.006  28.531  0.00  0.00    -0.341 N 
ATOM     24  H13 UNL     1     -11.632  12.413  27.819  0.00  0.00    +0.146 HD
BRANCH  23  25
ATOM     25  C17 UNL     1     -13.566  12.882  28.660  0.00  0.00    +0.129 C 
BRANCH  25  26
ATOM     26  C18 UNL     1     -14.241  14.245  28.502  0.00  0.00    +0.174 C 
BRANCH  26  27
ATOM     27  O4  UNL     1     -14.832  14.638  29.710  0.00  0.00    -0.393 OA
ATOM     28  H18 UNL     1     -14.094  14.942  30.301  0.00  0.00    +0.209 HD
ENDBRANCH  26  27
ENDBRANCH  25  26
ENDBRANCH  23  25
ENDBRANCH   4  23
TORSDOF 8
ENDMDL
MODEL 9
REMARK minimizedAffinity -6.57790852
REMARK minimizedRMSD -1
REMARK  Name = /home/tchapet/Post-Doc/ARTICLES-DOSSIERS-DES-ARTICLES-EN-REDACTION/NOUVELS-AXES-DE-RECHERCHE-A-REGARDER-URGEMMENT/ARTICLES-EN-REDACTIONS/ARTICLE_MVOTO/Paper2_JCIM/docking_rerun/ligands/20549.pdb
REMARK  8 active torsions:
REMARK  status: ('A' for Active; 'I' for Inactive)
REMARK    1  A    between atoms: O1_1  and  C1_2
REMARK    2  A    between atoms: C1_2  and  C2_3
REMARK    3  A    between atoms: C2_3  and  N1_4
REMARK    4  A    between atoms: N1_4  and  C3_5
REMARK    5  A    between atoms: C6_8  and  N2_21
REMARK    6  A    between atoms: N2_21  and  C17_22
REMARK    7  A    between atoms: C17_22  and  C18_23
REMARK    8  A    between atoms: C18_23  and  O4_24
REMARK                            x       y       z     vdW  Elec       q    Type
REMARK                         _______ _______ _______ _____ _____    ______ ____
ROOT
ATOM      1  C3  UNL     1     -10.999  14.876  31.666  0.00  0.00    +0.039 A 
ATOM      2  C4  UNL     1     -12.123  14.053  31.800  0.00  0.00    +0.025 A 
ATOM      3  C5  UNL     1     -13.033  13.914  30.760  0.00  0.00    +0.025 A 
ATOM      4  C6  UNL     1     -12.849  14.593  29.551  0.00  0.00    +0.039 A 
ATOM      5  C7  UNL     1     -11.746  15.476  29.403  0.00  0.00    +0.056 A 
ATOM      6  C8  UNL     1     -10.814  15.619  30.468  0.00  0.00    +0.056 A 
ATOM      7  C9  UNL     1      -9.684  16.584  30.313  0.00  0.00    +0.196 C 
ATOM      8  O2  UNL     1      -9.017  16.963  31.312  0.00  0.00    -0.287 OA
ATOM      9  C10 UNL     1      -9.370  17.153  28.985  0.00  0.00    +0.033 A 
ATOM     10  C11 UNL     1     -10.290  17.009  27.931  0.00  0.00    +0.033 A 
ATOM     11  C12 UNL     1     -11.560  16.292  28.165  0.00  0.00    +0.196 C 
ATOM     12  O3  UNL     1     -12.496  16.417  27.329  0.00  0.00    -0.287 OA
ATOM     13  C13 UNL     1     -10.003  17.575  26.676  0.00  0.00    +0.012 A 
ATOM     14  C14 UNL     1      -8.809  18.270  26.472  0.00  0.00    +0.001 A 
ATOM     15  C15 UNL     1      -7.895  18.412  27.517  0.00  0.00    +0.001 A 
ATOM     16  C16 UNL     1      -8.172  17.860  28.769  0.00  0.00    +0.012 A 
ENDROOT
BRANCH   1  17
ATOM     17  N1  UNL     1     -10.017  14.895  32.719  0.00  0.00    -0.341 N 
ATOM     18  H6  UNL     1      -9.014  14.730  32.477  0.00  0.00    +0.146 HD
BRANCH  17  19
ATOM     19  C2  UNL     1     -10.351  15.114  34.128  0.00  0.00    +0.129 C 
BRANCH  19  20
ATOM     20  C1  UNL     1     -10.470  16.608  34.442  0.00  0.00    +0.174 C 
BRANCH  20  21
ATOM     21  O1  UNL     1      -9.280  17.279  34.124  0.00  0.00    -0.393 OA
ATOM     22  H1  UNL     1      -8.625  17.045  34.832  0.00  0.00    +0.209 HD
ENDBRANCH  20  21
ENDBRANCH  19  20
ENDBRANCH  17  19
ENDBRANCH   1  17
BRANCH   4  23
ATOM     23  N2  UNL     1     -13.747  14.327  28.459  0.00  0.00    -0.341 N 
ATOM     24  H13 UNL     1     -14.378  15.090  28.126  0.00  0.00    +0.146 HD
BRANCH  23  25
ATOM     25  C17 UNL     1     -13.825  13.029  27.788  0.00  0.00    +0.129 C 
BRANCH  25  26
ATOM     26  C18 UNL     1     -12.443  12.588  27.301  0.00  0.00    +0.174 C 
BRANCH  26  27
ATOM     27  O4  UNL     1     -11.969  11.527  28.084  0.00  0.00    -0.393 OA
ATOM     28  H18 UNL     1     -12.460  10.716  27.789  0.00  0.00    +0.209 HD
ENDBRANCH  26  27
ENDBRANCH  25  26
ENDBRANCH  23  25
ENDBRANCH   4  23
TORSDOF 8
ENDMDL
