MODEL 1
REMARK minimizedAffinity -5.22370052
REMARK minimizedRMSD -1
REMARK  Name = /home/tchapet/Post-Doc/ARTICLES-DOSSIERS-DES-ARTICLES-EN-REDACTION/NOUVELS-AXES-DE-RECHERCHE-A-REGARDER-URGEMMENT/ARTICLES-EN-REDACTIONS/ARTICLE_MVOTO/Paper2_Sensors_ActuatorsB/docking_rerun/ligands/20778.pdb
REMARK  7 active torsions:
REMARK  status: ('A' for Active; 'I' for Inactive)
REMARK    1  A    between atoms: N2_2  and  N3_3
REMARK    2  A    between atoms: C2_6  and  N5_7
REMARK    3  A    between atoms: N5_7  and  C3_8
REMARK    4  A    between atoms: C3_8  and  C4_9
REMARK    5  A    between atoms: C3_8  and  C5_10
REMARK    6  A    between atoms: C6_12  and  S1_14
REMARK    7  A    between atoms: S1_14  and  C7_15
REMARK                            x       y       z     vdW  Elec       q    Type
REMARK                         _______ _______ _______ _____ _____    ______ ____
ROOT
ATOM      1  N3  UNL     1      13.347  -0.878   6.029  0.00  0.00    -0.126 N 
ATOM      2  C1  UNL     1      13.716  -2.235   6.280  0.00  0.00    +0.252 A 
ATOM      3  N4  UNL     1      13.786  -3.118   5.250  0.00  0.00    -0.178 NA
ATOM      4  C2  UNL     1      14.135  -4.409   5.476  0.00  0.00    +0.240 A 
ATOM      5  N6  UNL     1      14.416  -4.817   6.740  0.00  0.00    -0.187 NA
ATOM      6  C6  UNL     1      14.349  -3.940   7.772  0.00  0.00    +0.194 A 
ATOM      7  N7  UNL     1      13.999  -2.650   7.543  0.00  0.00    -0.187 NA
ATOM      8  H1  UNL     1      13.131  -0.568   5.055  0.00  0.00    +0.193 HD
ENDROOT
BRANCH   1  10
ATOM      9  N1  UNL     1      13.211   0.765   7.878  0.00  0.00    -0.017 NA
ATOM     10  N2  UNL     1      13.273   0.021   7.042  0.00  0.00    -0.126 NA
ENDBRANCH   1  10
BRANCH   6  11
ATOM     11  S1  UNL     1      14.725  -4.484   9.433  0.00  0.00    -0.089 S 
ATOM     12  C7  UNL     1      13.046  -4.143  10.046  0.00  0.00    +0.093 C 
ENDBRANCH   6  11
BRANCH   4  13
ATOM     13  N5  UNL     1      14.207  -5.321   4.371  0.00  0.00    -0.213 NA
BRANCH  13  14
ATOM     14  C3  UNL     1      15.350  -5.520   3.477  0.00  0.00    +0.091 C 
ATOM     15  C4  UNL     1      16.596  -5.954   4.256  0.00  0.00    +0.029 C 
ATOM     16  C5  UNL     1      15.010  -6.501   2.351  0.00  0.00    +0.029 C 
ENDBRANCH  13  14
ENDBRANCH   4  13
TORSDOF 4
ENDMDL
MODEL 2
REMARK minimizedAffinity -4.42804432
REMARK minimizedRMSD -1
REMARK  Name = /home/tchapet/Post-Doc/ARTICLES-DOSSIERS-DES-ARTICLES-EN-REDACTION/NOUVELS-AXES-DE-RECHERCHE-A-REGARDER-URGEMMENT/ARTICLES-EN-REDACTIONS/ARTICLE_MVOTO/Paper2_Sensors_ActuatorsB/docking_rerun/ligands/20778.pdb
REMARK  7 active torsions:
REMARK  status: ('A' for Active; 'I' for Inactive)
REMARK    1  A    between atoms: N2_2  and  N3_3
REMARK    2  A    between atoms: C2_6  and  N5_7
REMARK    3  A    between atoms: N5_7  and  C3_8
REMARK    4  A    between atoms: C3_8  and  C4_9
REMARK    5  A    between atoms: C3_8  and  C5_10
REMARK    6  A    between atoms: C6_12  and  S1_14
REMARK    7  A    between atoms: S1_14  and  C7_15
REMARK                            x       y       z     vdW  Elec       q    Type
REMARK                         _______ _______ _______ _____ _____    ______ ____
ROOT
ATOM      1  N3  UNL     1      13.177  -0.748   8.105  0.00  0.00    -0.126 N 
ATOM      2  C1  UNL     1      13.771  -1.926   7.555  0.00  0.00    +0.252 A 
ATOM      3  N4  UNL     1      13.481  -2.297   6.281  0.00  0.00    -0.178 NA
ATOM      4  C2  UNL     1      14.039  -3.413   5.748  0.00  0.00    +0.240 A 
ATOM      5  N6  UNL     1      14.892  -4.159   6.496  0.00  0.00    -0.187 NA
ATOM      6  C6  UNL     1      15.187  -3.792   7.767  0.00  0.00    +0.194 A 
ATOM      7  N7  UNL     1      14.626  -2.676   8.298  0.00  0.00    -0.187 NA
ATOM      8  H1  UNL     1      12.520  -0.177   7.528  0.00  0.00    +0.193 HD
ENDROOT
BRANCH   1  10
ATOM      9  N1  UNL     1      13.683  -0.035  10.423  0.00  0.00    -0.017 NA
ATOM     10  N2  UNL     1      13.454  -0.357   9.374  0.00  0.00    -0.126 NA
ENDBRANCH   1  10
BRANCH   6  11
ATOM     11  S1  UNL     1      16.315  -4.778   8.744  0.00  0.00    -0.089 S 
ATOM     12  C7  UNL     1      17.072  -5.559   7.286  0.00  0.00    +0.093 C 
ENDBRANCH   6  11
BRANCH   4  13
ATOM     13  N5  UNL     1      13.720  -3.781   4.400  0.00  0.00    -0.213 NA
BRANCH  13  14
ATOM     14  C3  UNL     1      14.671  -3.991   3.305  0.00  0.00    +0.091 C 
ATOM     15  C4  UNL     1      14.068  -4.873   2.206  0.00  0.00    +0.029 C 
ATOM     16  C5  UNL     1      15.183  -2.659   2.750  0.00  0.00    +0.029 C 
ENDBRANCH  13  14
ENDBRANCH   4  13
TORSDOF 4
ENDMDL
MODEL 3
REMARK minimizedAffinity -4.31238365
REMARK minimizedRMSD -1
REMARK  Name = /home/tchapet/Post-Doc/ARTICLES-DOSSIERS-DES-ARTICLES-EN-REDACTION/NOUVELS-AXES-DE-RECHERCHE-A-REGARDER-URGEMMENT/ARTICLES-EN-REDACTIONS/ARTICLE_MVOTO/Paper2_Sensors_ActuatorsB/docking_rerun/ligands/20778.pdb
REMARK  7 active torsions:
REMARK  status: ('A' for Active; 'I' for Inactive)
REMARK    1  A    between atoms: N2_2  and  N3_3
REMARK    2  A    between atoms: C2_6  and  N5_7
REMARK    3  A    between atoms: N5_7  and  C3_8
REMARK    4  A    between atoms: C3_8  and  C4_9
REMARK    5  A    between atoms: C3_8  and  C5_10
REMARK    6  A    between atoms: C6_12  and  S1_14
REMARK    7  A    between atoms: S1_14  and  C7_15
REMARK                            x       y       z     vdW  Elec       q    Type
REMARK                         _______ _______ _______ _____ _____    ______ ____
ROOT
ATOM      1  N3  UNL     1       9.166 -20.595   2.563  0.00  0.00    -0.126 N 
ATOM      2  C1  UNL     1      10.515 -20.894   2.198  0.00  0.00    +0.252 A 
ATOM      3  N4  UNL     1      11.027 -20.400   1.041  0.00  0.00    -0.178 NA
ATOM      4  C2  UNL     1      12.307 -20.678   0.684  0.00  0.00    +0.240 A 
ATOM      5  N6  UNL     1      13.075 -21.453   1.491  0.00  0.00    -0.187 NA
ATOM      6  C6  UNL     1      12.570 -21.947   2.648  0.00  0.00    +0.194 A 
ATOM      7  N7  UNL     1      11.290 -21.669   3.001  0.00  0.00    -0.187 NA
ATOM      8  H1  UNL     1       8.578 -19.999   1.939  0.00  0.00    +0.193 HD
ENDROOT
BRANCH   1  10
ATOM      9  N1  UNL     1       8.196 -21.472   4.666  0.00  0.00    -0.017 NA
ATOM     10  N2  UNL     1       8.635 -21.075   3.715  0.00  0.00    -0.126 NA
ENDBRANCH   1  10
BRANCH   6  11
ATOM     11  S1  UNL     1      13.591 -22.964   3.707  0.00  0.00    -0.089 S 
ATOM     12  C7  UNL     1      15.071 -21.936   3.458  0.00  0.00    +0.093 C 
ENDBRANCH   6  11
BRANCH   4  13
ATOM     13  N5  UNL     1      12.826 -20.141  -0.540  0.00  0.00    -0.213 NA
BRANCH  13  14
ATOM     14  C3  UNL     1      12.796 -18.737  -0.960  0.00  0.00    +0.091 C 
ATOM     15  C4  UNL     1      13.658 -17.864  -0.042  0.00  0.00    +0.029 C 
ATOM     16  C5  UNL     1      13.195 -18.588  -2.431  0.00  0.00    +0.029 C 
ENDBRANCH  13  14
ENDBRANCH   4  13
TORSDOF 4
ENDMDL
MODEL 4
REMARK minimizedAffinity -4.29360676
REMARK minimizedRMSD -1
REMARK  Name = /home/tchapet/Post-Doc/ARTICLES-DOSSIERS-DES-ARTICLES-EN-REDACTION/NOUVELS-AXES-DE-RECHERCHE-A-REGARDER-URGEMMENT/ARTICLES-EN-REDACTIONS/ARTICLE_MVOTO/Paper2_Sensors_ActuatorsB/docking_rerun/ligands/20778.pdb
REMARK  7 active torsions:
REMARK  status: ('A' for Active; 'I' for Inactive)
REMARK    1  A    between atoms: N2_2  and  N3_3
REMARK    2  A    between atoms: C2_6  and  N5_7
REMARK    3  A    between atoms: N5_7  and  C3_8
REMARK    4  A    between atoms: C3_8  and  C4_9
REMARK    5  A    between atoms: C3_8  and  C5_10
REMARK    6  A    between atoms: C6_12  and  S1_14
REMARK    7  A    between atoms: S1_14  and  C7_15
REMARK                            x       y       z     vdW  Elec       q    Type
REMARK                         _______ _______ _______ _____ _____    ______ ____
ROOT
ATOM      1  N3  UNL     1       1.610 -16.026  14.379  0.00  0.00    -0.126 N 
ATOM      2  C1  UNL     1       0.410 -15.257  14.270  0.00  0.00    +0.252 A 
ATOM      3  N4  UNL     1       0.301 -14.078  14.936  0.00  0.00    -0.178 NA
ATOM      4  C2  UNL     1      -0.833 -13.340  14.841  0.00  0.00    +0.240 A 
ATOM      5  N6  UNL     1      -1.862 -13.785  14.074  0.00  0.00    -0.187 NA
ATOM      6  C6  UNL     1      -1.757 -14.960  13.406  0.00  0.00    +0.194 A 
ATOM      7  N7  UNL     1      -0.622 -15.696  13.504  0.00  0.00    -0.187 NA
ATOM      8  H1  UNL     1       2.398 -15.681  14.970  0.00  0.00    +0.193 HD
ENDROOT
BRANCH   1  10
ATOM      9  N1  UNL     1       1.851 -18.179  13.178  0.00  0.00    -0.017 NA
ATOM     10  N2  UNL     1       1.742 -17.205  13.721  0.00  0.00    -0.126 NA
ENDBRANCH   1  10
BRANCH   6  11
ATOM     11  S1  UNL     1      -3.115 -15.537  12.395  0.00  0.00    -0.089 S 
ATOM     12  C7  UNL     1      -2.028 -16.054  11.031  0.00  0.00    +0.093 C 
ENDBRANCH   6  11
BRANCH   4  13
ATOM     13  N5  UNL     1      -0.923 -12.096  15.550  0.00  0.00    -0.213 NA
BRANCH  13  14
ATOM     14  C3  UNL     1      -1.678 -11.845  16.780  0.00  0.00    +0.091 C 
ATOM     15  C4  UNL     1      -0.983 -10.797  17.655  0.00  0.00    +0.029 C 
ATOM     16  C5  UNL     1      -3.129 -11.462  16.473  0.00  0.00    +0.029 C 
ENDBRANCH  13  14
ENDBRANCH   4  13
TORSDOF 4
ENDMDL
MODEL 5
REMARK minimizedAffinity -4.27885389
REMARK minimizedRMSD -1
REMARK  Name = /home/tchapet/Post-Doc/ARTICLES-DOSSIERS-DES-ARTICLES-EN-REDACTION/NOUVELS-AXES-DE-RECHERCHE-A-REGARDER-URGEMMENT/ARTICLES-EN-REDACTIONS/ARTICLE_MVOTO/Paper2_Sensors_ActuatorsB/docking_rerun/ligands/20778.pdb
REMARK  7 active torsions:
REMARK  status: ('A' for Active; 'I' for Inactive)
REMARK    1  A    between atoms: N2_2  and  N3_3
REMARK    2  A    between atoms: C2_6  and  N5_7
REMARK    3  A    between atoms: N5_7  and  C3_8
REMARK    4  A    between atoms: C3_8  and  C4_9
REMARK    5  A    between atoms: C3_8  and  C5_10
REMARK    6  A    between atoms: C6_12  and  S1_14
REMARK    7  A    between atoms: S1_14  and  C7_15
REMARK                            x       y       z     vdW  Elec       q    Type
REMARK                         _______ _______ _______ _____ _____    ______ ____
ROOT
ATOM      1  N3  UNL     1       1.172 -16.011  18.704  0.00  0.00    -0.126 N 
ATOM      2  C1  UNL     1       0.254 -15.095  19.306  0.00  0.00    +0.252 A 
ATOM      3  N4  UNL     1      -0.542 -14.324  18.521  0.00  0.00    -0.178 NA
ATOM      4  C2  UNL     1      -1.417 -13.451  19.081  0.00  0.00    +0.240 A 
ATOM      5  N6  UNL     1      -1.493 -13.351  20.433  0.00  0.00    -0.187 NA
ATOM      6  C6  UNL     1      -0.701 -14.120  21.221  0.00  0.00    +0.194 A 
ATOM      7  N7  UNL     1       0.173 -14.991  20.658  0.00  0.00    -0.187 NA
ATOM      8  H1  UNL     1       1.228 -16.085  17.664  0.00  0.00    +0.193 HD
ENDROOT
BRANCH   1  10
ATOM      9  N1  UNL     1       2.639 -17.439  20.098  0.00  0.00    -0.017 NA
ATOM     10  N2  UNL     1       1.975 -16.793  19.468  0.00  0.00    -0.126 NA
ENDBRANCH   1  10
BRANCH   6  11
ATOM     11  S1  UNL     1      -0.811 -13.986  23.001  0.00  0.00    -0.089 S 
ATOM     12  C7  UNL     1       0.199 -15.471  23.288  0.00  0.00    +0.093 C 
ENDBRANCH   6  11
BRANCH   4  13
ATOM     13  N5  UNL     1      -2.251 -12.651  18.232  0.00  0.00    -0.213 NA
BRANCH  13  14
ATOM     14  C3  UNL     1      -1.801 -11.714  17.200  0.00  0.00    +0.091 C 
ATOM     15  C4  UNL     1      -2.939 -11.358  16.238  0.00  0.00    +0.029 C 
ATOM     16  C5  UNL     1      -1.167 -10.465  17.820  0.00  0.00    +0.029 C 
ENDBRANCH  13  14
ENDBRANCH   4  13
TORSDOF 4
ENDMDL
MODEL 6
REMARK minimizedAffinity -4.04881001
REMARK minimizedRMSD -1
REMARK  Name = /home/tchapet/Post-Doc/ARTICLES-DOSSIERS-DES-ARTICLES-EN-REDACTION/NOUVELS-AXES-DE-RECHERCHE-A-REGARDER-URGEMMENT/ARTICLES-EN-REDACTIONS/ARTICLE_MVOTO/Paper2_Sensors_ActuatorsB/docking_rerun/ligands/20778.pdb
REMARK  7 active torsions:
REMARK  status: ('A' for Active; 'I' for Inactive)
REMARK    1  A    between atoms: N2_2  and  N3_3
REMARK    2  A    between atoms: C2_6  and  N5_7
REMARK    3  A    between atoms: N5_7  and  C3_8
REMARK    4  A    between atoms: C3_8  and  C4_9
REMARK    5  A    between atoms: C3_8  and  C5_10
REMARK    6  A    between atoms: C6_12  and  S1_14
REMARK    7  A    between atoms: S1_14  and  C7_15
REMARK                            x       y       z     vdW  Elec       q    Type
REMARK                         _______ _______ _______ _____ _____    ______ ____
ROOT
ATOM      1  N3  UNL     1      13.585   0.445   8.830  0.00  0.00    -0.126 N 
ATOM      2  C1  UNL     1      13.661  -0.775   8.089  0.00  0.00    +0.252 A 
ATOM      3  N4  UNL     1      13.436  -0.766   6.750  0.00  0.00    -0.178 NA
ATOM      4  C2  UNL     1      13.505  -1.918   6.036  0.00  0.00    +0.240 A 
ATOM      5  N6  UNL     1      13.802  -3.082   6.669  0.00  0.00    -0.187 NA
ATOM      6  C6  UNL     1      14.030  -3.096   8.005  0.00  0.00    +0.194 A 
ATOM      7  N7  UNL     1      13.958  -1.943   8.716  0.00  0.00    -0.187 NA
ATOM      8  H1  UNL     1      13.355   1.339   8.341  0.00  0.00    +0.193 HD
ENDROOT
BRANCH   1  10
ATOM      9  N1  UNL     1      13.992   0.474  11.273  0.00  0.00    -0.017 NA
ATOM     10  N2  UNL     1      13.808   0.461  10.168  0.00  0.00    -0.126 NA
ENDBRANCH   1  10
BRANCH   6  11
ATOM     11  S1  UNL     1      14.424  -4.633   8.829  0.00  0.00    -0.089 S 
ATOM     12  C7  UNL     1      16.199  -4.512   8.449  0.00  0.00    +0.093 C 
ENDBRANCH   6  11
BRANCH   4  13
ATOM     13  N5  UNL     1      13.268  -1.883   4.623  0.00  0.00    -0.213 NA
BRANCH  13  14
ATOM     14  C3  UNL     1      13.823  -0.920   3.668  0.00  0.00    +0.091 C 
ATOM     15  C4  UNL     1      14.103   0.429   4.339  0.00  0.00    +0.029 C 
ATOM     16  C5  UNL     1      15.066  -1.480   2.971  0.00  0.00    +0.029 C 
ENDBRANCH  13  14
ENDBRANCH   4  13
TORSDOF 4
ENDMDL
MODEL 7
REMARK minimizedAffinity -4.02625036
REMARK minimizedRMSD -1
REMARK  Name = /home/tchapet/Post-Doc/ARTICLES-DOSSIERS-DES-ARTICLES-EN-REDACTION/NOUVELS-AXES-DE-RECHERCHE-A-REGARDER-URGEMMENT/ARTICLES-EN-REDACTIONS/ARTICLE_MVOTO/Paper2_Sensors_ActuatorsB/docking_rerun/ligands/20778.pdb
REMARK  7 active torsions:
REMARK  status: ('A' for Active; 'I' for Inactive)
REMARK    1  A    between atoms: N2_2  and  N3_3
REMARK    2  A    between atoms: C2_6  and  N5_7
REMARK    3  A    between atoms: N5_7  and  C3_8
REMARK    4  A    between atoms: C3_8  and  C4_9
REMARK    5  A    between atoms: C3_8  and  C5_10
REMARK    6  A    between atoms: C6_12  and  S1_14
REMARK    7  A    between atoms: S1_14  and  C7_15
REMARK                            x       y       z     vdW  Elec       q    Type
REMARK                         _______ _______ _______ _____ _____    ______ ____
ROOT
ATOM      1  N3  UNL     1       0.951 -14.730  21.131  0.00  0.00    -0.126 N 
ATOM      2  C1  UNL     1      -0.197 -14.460  20.324  0.00  0.00    +0.252 A 
ATOM      3  N4  UNL     1      -0.055 -13.795  19.148  0.00  0.00    -0.178 NA
ATOM      4  C2  UNL     1      -1.138 -13.533  18.374  0.00  0.00    +0.240 A 
ATOM      5  N6  UNL     1      -2.367 -13.940  18.781  0.00  0.00    -0.187 NA
ATOM      6  C6  UNL     1      -2.515 -14.606  19.952  0.00  0.00    +0.194 A 
ATOM      7  N7  UNL     1      -1.430 -14.865  20.725  0.00  0.00    -0.187 NA
ATOM      8  H1  UNL     1       1.896 -14.415  20.816  0.00  0.00    +0.193 HD
ENDROOT
BRANCH   1  10
ATOM      9  N1  UNL     1       0.737 -15.944  23.280  0.00  0.00    -0.017 NA
ATOM     10  N2  UNL     1       0.834 -15.395  22.308  0.00  0.00    -0.126 NA
ENDBRANCH   1  10
BRANCH   6  11
ATOM     11  S1  UNL     1      -4.138 -15.142  20.478  0.00  0.00    -0.089 S 
ATOM     12  C7  UNL     1      -4.704 -15.468  18.781  0.00  0.00    +0.093 C 
ENDBRANCH   6  11
BRANCH   4  13
ATOM     13  N5  UNL     1      -0.961 -12.833  17.135  0.00  0.00    -0.213 NA
BRANCH  13  14
ATOM     14  C3  UNL     1      -1.403 -11.470  16.832  0.00  0.00    +0.091 C 
ATOM     15  C4  UNL     1      -2.863 -11.449  16.366  0.00  0.00    +0.029 C 
ATOM     16  C5  UNL     1      -1.170 -10.532  18.020  0.00  0.00    +0.029 C 
ENDBRANCH  13  14
ENDBRANCH   4  13
TORSDOF 4
ENDMDL
MODEL 8
REMARK minimizedAffinity -4.0211997
REMARK minimizedRMSD -1
REMARK  Name = /home/tchapet/Post-Doc/ARTICLES-DOSSIERS-DES-ARTICLES-EN-REDACTION/NOUVELS-AXES-DE-RECHERCHE-A-REGARDER-URGEMMENT/ARTICLES-EN-REDACTIONS/ARTICLE_MVOTO/Paper2_Sensors_ActuatorsB/docking_rerun/ligands/20778.pdb
REMARK  7 active torsions:
REMARK  status: ('A' for Active; 'I' for Inactive)
REMARK    1  A    between atoms: N2_2  and  N3_3
REMARK    2  A    between atoms: C2_6  and  N5_7
REMARK    3  A    between atoms: N5_7  and  C3_8
REMARK    4  A    between atoms: C3_8  and  C4_9
REMARK    5  A    between atoms: C3_8  and  C5_10
REMARK    6  A    between atoms: C6_12  and  S1_14
REMARK    7  A    between atoms: S1_14  and  C7_15
REMARK                            x       y       z     vdW  Elec       q    Type
REMARK                         _______ _______ _______ _____ _____    ______ ____
ROOT
ATOM      1  N3  UNL     1      -2.733 -14.008  12.486  0.00  0.00    -0.126 N 
ATOM      2  C1  UNL     1      -1.976 -14.168  13.688  0.00  0.00    +0.252 A 
ATOM      3  N4  UNL     1      -1.674 -13.082  14.445  0.00  0.00    -0.178 NA
ATOM      4  C2  UNL     1      -0.955 -13.222  15.588  0.00  0.00    +0.240 A 
ATOM      5  N6  UNL     1      -0.540 -14.456  15.973  0.00  0.00    -0.187 NA
ATOM      6  C6  UNL     1      -0.841 -15.543  15.222  0.00  0.00    +0.194 A 
ATOM      7  N7  UNL     1      -1.558 -15.400  14.079  0.00  0.00    -0.187 NA
ATOM      8  H1  UNL     1      -3.050 -13.058  12.192  0.00  0.00    +0.193 HD
ENDROOT
BRANCH   1  10
ATOM      9  N1  UNL     1      -3.309 -15.964  11.079  0.00  0.00    -0.017 NA
ATOM     10  N2  UNL     1      -3.048 -15.079  11.715  0.00  0.00    -0.126 NA
ENDBRANCH   1  10
BRANCH   6  11
ATOM     11  S1  UNL     1      -0.293 -17.166  15.738  0.00  0.00    -0.089 S 
ATOM     12  C7  UNL     1      -0.191 -16.697  17.492  0.00  0.00    +0.093 C 
ENDBRANCH   6  11
BRANCH   4  13
ATOM     13  N5  UNL     1      -0.653 -12.061  16.373  0.00  0.00    -0.213 NA
BRANCH  13  14
ATOM     14  C3  UNL     1      -1.490 -11.474  17.422  0.00  0.00    +0.091 C 
ATOM     15  C4  UNL     1      -1.490 -12.343  18.684  0.00  0.00    +0.029 C 
ATOM     16  C5  UNL     1      -1.075 -10.031  17.723  0.00  0.00    +0.029 C 
ENDBRANCH  13  14
ENDBRANCH   4  13
TORSDOF 4
ENDMDL
MODEL 9
REMARK minimizedAffinity -3.99292755
REMARK minimizedRMSD -1
REMARK  Name = /home/tchapet/Post-Doc/ARTICLES-DOSSIERS-DES-ARTICLES-EN-REDACTION/NOUVELS-AXES-DE-RECHERCHE-A-REGARDER-URGEMMENT/ARTICLES-EN-REDACTIONS/ARTICLE_MVOTO/Paper2_Sensors_ActuatorsB/docking_rerun/ligands/20778.pdb
REMARK  7 active torsions:
REMARK  status: ('A' for Active; 'I' for Inactive)
REMARK    1  A    between atoms: N2_2  and  N3_3
REMARK    2  A    between atoms: C2_6  and  N5_7
REMARK    3  A    between atoms: N5_7  and  C3_8
REMARK    4  A    between atoms: C3_8  and  C4_9
REMARK    5  A    between atoms: C3_8  and  C5_10
REMARK    6  A    between atoms: C6_12  and  S1_14
REMARK    7  A    between atoms: S1_14  and  C7_15
REMARK                            x       y       z     vdW  Elec       q    Type
REMARK                         _______ _______ _______ _____ _____    ______ ____
ROOT
ATOM      1  N3  UNL     1      12.847 -15.813   0.394  0.00  0.00    -0.126 N 
ATOM      2  C1  UNL     1      12.769 -16.981  -0.425  0.00  0.00    +0.252 A 
ATOM      3  N4  UNL     1      12.971 -18.206   0.126  0.00  0.00    -0.178 NA
ATOM      4  C2  UNL     1      12.899 -19.323  -0.642  0.00  0.00    +0.240 A 
ATOM      5  N6  UNL     1      12.622 -19.210  -1.967  0.00  0.00    -0.187 NA
ATOM      6  C6  UNL     1      12.417 -17.989  -2.521  0.00  0.00    +0.194 A 
ATOM      7  N7  UNL     1      12.491 -16.875  -1.751  0.00  0.00    -0.187 NA
ATOM      8  H1  UNL     1      13.061 -15.903   1.412  0.00  0.00    +0.193 HD
ENDROOT
BRANCH   1  10
ATOM      9  N1  UNL     1      12.480 -13.560  -0.569  0.00  0.00    -0.017 NA
ATOM     10  N2  UNL     1      12.647 -14.579  -0.133  0.00  0.00    -0.126 NA
ENDBRANCH   1  10
BRANCH   6  11
ATOM     11  S1  UNL     1      12.049 -17.850  -4.265  0.00  0.00    -0.089 S 
ATOM     12  C7  UNL     1      12.235 -16.041  -4.275  0.00  0.00    +0.093 C 
ENDBRANCH   6  11
BRANCH   4  13
ATOM     13  N5  UNL     1      13.111 -20.605  -0.037  0.00  0.00    -0.213 NA
BRANCH  13  14
ATOM     14  C3  UNL     1      12.590 -21.058   1.254  0.00  0.00    +0.091 C 
ATOM     15  C4  UNL     1      11.076 -20.844   1.349  0.00  0.00    +0.029 C 
ATOM     16  C5  UNL     1      12.978 -22.514   1.531  0.00  0.00    +0.029 C 
ENDBRANCH  13  14
ENDBRANCH   4  13
TORSDOF 4
ENDMDL
