MODEL 1
REMARK minimizedAffinity -4.2540226
REMARK minimizedRMSD -1
REMARK  Name = /home/tchapet/Post-Doc/ARTICLES-DOSSIERS-DES-ARTICLES-EN-REDACTION/NOUVELS-AXES-DE-RECHERCHE-A-REGARDER-URGEMMENT/ARTICLES-EN-REDACTIONS/ARTICLE_MVOTO/Paper2_Sensors_ActuatorsB/docking_rerun/ligands/20778.pdb
REMARK  7 active torsions:
REMARK  status: ('A' for Active; 'I' for Inactive)
REMARK    1  A    between atoms: N2_2  and  N3_3
REMARK    2  A    between atoms: C2_6  and  N5_7
REMARK    3  A    between atoms: N5_7  and  C3_8
REMARK    4  A    between atoms: C3_8  and  C4_9
REMARK    5  A    between atoms: C3_8  and  C5_10
REMARK    6  A    between atoms: C6_12  and  S1_14
REMARK    7  A    between atoms: S1_14  and  C7_15
REMARK                            x       y       z     vdW  Elec       q    Type
REMARK                         _______ _______ _______ _____ _____    ______ ____
ROOT
ATOM      1  N3  UNL     1     -23.669 -28.513   6.770  0.00  0.00    -0.126 N 
ATOM      2  C1  UNL     1     -23.297 -28.880   5.439  0.00  0.00    +0.252 A 
ATOM      3  N4  UNL     1     -22.219 -28.297   4.854  0.00  0.00    -0.178 NA
ATOM      4  C2  UNL     1     -21.857 -28.637   3.592  0.00  0.00    +0.240 A 
ATOM      5  N6  UNL     1     -22.579 -29.566   2.914  0.00  0.00    -0.187 NA
ATOM      6  C6  UNL     1     -23.654 -30.153   3.494  0.00  0.00    +0.194 A 
ATOM      7  N7  UNL     1     -24.014 -29.810   4.756  0.00  0.00    -0.187 NA
ATOM      8  H1  UNL     1     -23.113 -27.797   7.288  0.00  0.00    +0.193 HD
ENDROOT
BRANCH   1  10
ATOM      9  N1  UNL     1     -25.626 -29.556   7.874  0.00  0.00    -0.017 NA
ATOM     10  N2  UNL     1     -24.740 -29.084   7.375  0.00  0.00    -0.126 NA
ENDBRANCH   1  10
BRANCH   6  11
ATOM     11  S1  UNL     1     -24.596 -31.379   2.596  0.00  0.00    -0.089 S 
ATOM     12  C7  UNL     1     -23.118 -32.314   2.098  0.00  0.00    +0.093 C 
ENDBRANCH   6  11
BRANCH   4  13
ATOM     13  N5  UNL     1     -20.712 -28.010   2.997  0.00  0.00    -0.213 NA
BRANCH  13  14
ATOM     14  C3  UNL     1     -19.355 -28.557   2.931  0.00  0.00    +0.091 C 
ATOM     15  C4  UNL     1     -19.240 -29.860   3.728  0.00  0.00    +0.029 C 
ATOM     16  C5  UNL     1     -18.896 -28.732   1.481  0.00  0.00    +0.029 C 
ENDBRANCH  13  14
ENDBRANCH   4  13
TORSDOF 4
ENDMDL
MODEL 2
REMARK minimizedAffinity -4.16608906
REMARK minimizedRMSD -1
REMARK  Name = /home/tchapet/Post-Doc/ARTICLES-DOSSIERS-DES-ARTICLES-EN-REDACTION/NOUVELS-AXES-DE-RECHERCHE-A-REGARDER-URGEMMENT/ARTICLES-EN-REDACTIONS/ARTICLE_MVOTO/Paper2_Sensors_ActuatorsB/docking_rerun/ligands/20778.pdb
REMARK  7 active torsions:
REMARK  status: ('A' for Active; 'I' for Inactive)
REMARK    1  A    between atoms: N2_2  and  N3_3
REMARK    2  A    between atoms: C2_6  and  N5_7
REMARK    3  A    between atoms: N5_7  and  C3_8
REMARK    4  A    between atoms: C3_8  and  C4_9
REMARK    5  A    between atoms: C3_8  and  C5_10
REMARK    6  A    between atoms: C6_12  and  S1_14
REMARK    7  A    between atoms: S1_14  and  C7_15
REMARK                            x       y       z     vdW  Elec       q    Type
REMARK                         _______ _______ _______ _____ _____    ______ ____
ROOT
ATOM      1  N3  UNL     1     -19.099 -21.830 -10.169  0.00  0.00    -0.126 N 
ATOM      2  C1  UNL     1     -19.906 -22.675  -9.347  0.00  0.00    +0.252 A 
ATOM      3  N4  UNL     1     -21.024 -22.177  -8.758  0.00  0.00    -0.178 NA
ATOM      4  C2  UNL     1     -21.798 -22.970  -7.975  0.00  0.00    +0.240 A 
ATOM      5  N6  UNL     1     -21.450 -24.268  -7.783  0.00  0.00    -0.187 NA
ATOM      6  C6  UNL     1     -20.337 -24.772  -8.370  0.00  0.00    +0.194 A 
ATOM      7  N7  UNL     1     -19.564 -23.976  -9.152  0.00  0.00    -0.187 NA
ATOM      8  H1  UNL     1     -19.369 -20.832 -10.314  0.00  0.00    +0.193 HD
ENDROOT
BRANCH   1  10
ATOM      9  N1  UNL     1     -17.056 -22.701 -11.265  0.00  0.00    -0.017 NA
ATOM     10  N2  UNL     1     -17.980 -22.307 -10.770  0.00  0.00    -0.126 NA
ENDBRANCH   1  10
BRANCH   6  11
ATOM     11  S1  UNL     1     -19.888 -26.484  -8.116  0.00  0.00    -0.089 S 
ATOM     12  C7  UNL     1     -21.583 -27.086  -8.388  0.00  0.00    +0.093 C 
ENDBRANCH   6  11
BRANCH   4  13
ATOM     13  N5  UNL     1     -22.975 -22.421  -7.367  0.00  0.00    -0.213 NA
BRANCH  13  14
ATOM     14  C3  UNL     1     -23.048 -21.220  -6.531  0.00  0.00    +0.091 C 
ATOM     15  C4  UNL     1     -21.796 -21.073  -5.660  0.00  0.00    +0.029 C 
ATOM     16  C5  UNL     1     -23.305 -19.970  -7.377  0.00  0.00    +0.029 C 
ENDBRANCH  13  14
ENDBRANCH   4  13
TORSDOF 4
ENDMDL
MODEL 3
REMARK minimizedAffinity -3.99362397
REMARK minimizedRMSD -1
REMARK  Name = /home/tchapet/Post-Doc/ARTICLES-DOSSIERS-DES-ARTICLES-EN-REDACTION/NOUVELS-AXES-DE-RECHERCHE-A-REGARDER-URGEMMENT/ARTICLES-EN-REDACTIONS/ARTICLE_MVOTO/Paper2_Sensors_ActuatorsB/docking_rerun/ligands/20778.pdb
REMARK  7 active torsions:
REMARK  status: ('A' for Active; 'I' for Inactive)
REMARK    1  A    between atoms: N2_2  and  N3_3
REMARK    2  A    between atoms: C2_6  and  N5_7
REMARK    3  A    between atoms: N5_7  and  C3_8
REMARK    4  A    between atoms: C3_8  and  C4_9
REMARK    5  A    between atoms: C3_8  and  C5_10
REMARK    6  A    between atoms: C6_12  and  S1_14
REMARK    7  A    between atoms: S1_14  and  C7_15
REMARK                            x       y       z     vdW  Elec       q    Type
REMARK                         _______ _______ _______ _____ _____    ______ ____
ROOT
ATOM      1  N3  UNL     1     -28.476 -11.901   2.782  0.00  0.00    -0.126 N 
ATOM      2  C1  UNL     1     -28.722 -11.341   1.490  0.00  0.00    +0.252 A 
ATOM      3  N4  UNL     1     -28.936 -12.161   0.429  0.00  0.00    -0.178 NA
ATOM      4  C2  UNL     1     -29.170 -11.641  -0.802  0.00  0.00    +0.240 A 
ATOM      5  N6  UNL     1     -29.191 -10.294  -0.969  0.00  0.00    -0.187 NA
ATOM      6  C6  UNL     1     -28.980  -9.471   0.087  0.00  0.00    +0.194 A 
ATOM      7  N7  UNL     1     -28.745  -9.994   1.317  0.00  0.00    -0.187 NA
ATOM      8  H1  UNL     1     -28.459 -12.937   2.907  0.00  0.00    +0.193 HD
ENDROOT
BRANCH   1  10
ATOM      9  N1  UNL     1     -28.086 -10.441   4.745  0.00  0.00    -0.017 NA
ATOM     10  N2  UNL     1     -28.262 -11.101   3.857  0.00  0.00    -0.126 NA
ENDBRANCH   1  10
BRANCH   6  11
ATOM     11  S1  UNL     1     -29.014  -7.698  -0.140  0.00  0.00    -0.089 S 
ATOM     12  C7  UNL     1     -30.454  -7.754  -1.249  0.00  0.00    +0.093 C 
ENDBRANCH   6  11
BRANCH   4  13
ATOM     13  N5  UNL     1     -29.398 -12.527  -1.907  0.00  0.00    -0.213 NA
BRANCH  13  14
ATOM     14  C3  UNL     1     -28.428 -12.901  -2.940  0.00  0.00    +0.091 C 
ATOM     15  C4  UNL     1     -28.147 -14.407  -2.920  0.00  0.00    +0.029 C 
ATOM     16  C5  UNL     1     -28.879 -12.423  -4.323  0.00  0.00    +0.029 C 
ENDBRANCH  13  14
ENDBRANCH   4  13
TORSDOF 4
ENDMDL
MODEL 4
REMARK minimizedAffinity -3.94217753
REMARK minimizedRMSD -1
REMARK  Name = /home/tchapet/Post-Doc/ARTICLES-DOSSIERS-DES-ARTICLES-EN-REDACTION/NOUVELS-AXES-DE-RECHERCHE-A-REGARDER-URGEMMENT/ARTICLES-EN-REDACTIONS/ARTICLE_MVOTO/Paper2_Sensors_ActuatorsB/docking_rerun/ligands/20778.pdb
REMARK  7 active torsions:
REMARK  status: ('A' for Active; 'I' for Inactive)
REMARK    1  A    between atoms: N2_2  and  N3_3
REMARK    2  A    between atoms: C2_6  and  N5_7
REMARK    3  A    between atoms: N5_7  and  C3_8
REMARK    4  A    between atoms: C3_8  and  C4_9
REMARK    5  A    between atoms: C3_8  and  C5_10
REMARK    6  A    between atoms: C6_12  and  S1_14
REMARK    7  A    between atoms: S1_14  and  C7_15
REMARK                            x       y       z     vdW  Elec       q    Type
REMARK                         _______ _______ _______ _____ _____    ______ ____
ROOT
ATOM      1  N3  UNL     1     -24.753 -30.607   2.306  0.00  0.00    -0.126 N 
ATOM      2  C1  UNL     1     -24.051 -29.887   3.321  0.00  0.00    +0.252 A 
ATOM      3  N4  UNL     1     -22.899 -29.237   3.014  0.00  0.00    -0.178 NA
ATOM      4  C2  UNL     1     -22.223 -28.550   3.969  0.00  0.00    +0.240 A 
ATOM      5  N6  UNL     1     -22.707 -28.514   5.237  0.00  0.00    -0.187 NA
ATOM      6  C6  UNL     1     -23.858 -29.158   5.549  0.00  0.00    +0.194 A 
ATOM      7  N7  UNL     1     -24.530 -29.845   4.592  0.00  0.00    -0.187 NA
ATOM      8  H1  UNL     1     -24.378 -30.634   1.332  0.00  0.00    +0.193 HD
ENDROOT
BRANCH   1  10
ATOM      9  N1  UNL     1     -26.862 -31.800   2.823  0.00  0.00    -0.017 NA
ATOM     10  N2  UNL     1     -25.908 -31.261   2.590  0.00  0.00    -0.126 NA
ENDBRANCH   1  10
BRANCH   6  11
ATOM     11  S1  UNL     1     -24.490 -29.101   7.221  0.00  0.00    -0.089 S 
ATOM     12  C7  UNL     1     -23.125 -30.099   7.891  0.00  0.00    +0.093 C 
ENDBRANCH   6  11
BRANCH   4  13
ATOM     13  N5  UNL     1     -21.011 -27.869   3.619  0.00  0.00    -0.213 NA
BRANCH  13  14
ATOM     14  C3  UNL     1     -19.730 -28.490   3.271  0.00  0.00    +0.091 C 
ATOM     15  C4  UNL     1     -19.647 -29.926   3.798  0.00  0.00    +0.029 C 
ATOM     16  C5  UNL     1     -19.470 -28.419   1.763  0.00  0.00    +0.029 C 
ENDBRANCH  13  14
ENDBRANCH   4  13
TORSDOF 4
ENDMDL
MODEL 5
REMARK minimizedAffinity -3.88773751
REMARK minimizedRMSD -1
REMARK  Name = /home/tchapet/Post-Doc/ARTICLES-DOSSIERS-DES-ARTICLES-EN-REDACTION/NOUVELS-AXES-DE-RECHERCHE-A-REGARDER-URGEMMENT/ARTICLES-EN-REDACTIONS/ARTICLE_MVOTO/Paper2_Sensors_ActuatorsB/docking_rerun/ligands/20778.pdb
REMARK  7 active torsions:
REMARK  status: ('A' for Active; 'I' for Inactive)
REMARK    1  A    between atoms: N2_2  and  N3_3
REMARK    2  A    between atoms: C2_6  and  N5_7
REMARK    3  A    between atoms: N5_7  and  C3_8
REMARK    4  A    between atoms: C3_8  and  C4_9
REMARK    5  A    between atoms: C3_8  and  C5_10
REMARK    6  A    between atoms: C6_12  and  S1_14
REMARK    7  A    between atoms: S1_14  and  C7_15
REMARK                            x       y       z     vdW  Elec       q    Type
REMARK                         _______ _______ _______ _____ _____    ______ ____
ROOT
ATOM      1  N3  UNL     1     -24.788 -29.600   3.210  0.00  0.00    -0.126 N 
ATOM      2  C1  UNL     1     -23.534 -29.617   3.894  0.00  0.00    +0.252 A 
ATOM      3  N4  UNL     1     -22.425 -29.123   3.284  0.00  0.00    -0.178 NA
ATOM      4  C2  UNL     1     -21.229 -29.134   3.924  0.00  0.00    +0.240 A 
ATOM      5  N6  UNL     1     -21.144 -29.641   5.180  0.00  0.00    -0.187 NA
ATOM      6  C6  UNL     1     -22.247 -30.134   5.794  0.00  0.00    +0.194 A 
ATOM      7  N7  UNL     1     -23.442 -30.123   5.152  0.00  0.00    -0.187 NA
ATOM      8  H1  UNL     1     -24.850 -29.210   2.243  0.00  0.00    +0.193 HD
ENDROOT
BRANCH   1  10
ATOM      9  N1  UNL     1     -26.834 -30.488   4.288  0.00  0.00    -0.017 NA
ATOM     10  N2  UNL     1     -25.909 -30.086   3.801  0.00  0.00    -0.126 NA
ENDBRANCH   1  10
BRANCH   6  11
ATOM     11  S1  UNL     1     -22.128 -30.797   7.451  0.00  0.00    -0.089 S 
ATOM     12  C7  UNL     1     -23.584 -29.883   8.044  0.00  0.00    +0.093 C 
ENDBRANCH   6  11
BRANCH   4  13
ATOM     13  N5  UNL     1     -20.074 -28.602   3.261  0.00  0.00    -0.213 NA
BRANCH  13  14
ATOM     14  C3  UNL     1     -18.993 -29.372   2.638  0.00  0.00    +0.091 C 
ATOM     15  C4  UNL     1     -18.768 -28.940   1.186  0.00  0.00    +0.029 C 
ATOM     16  C5  UNL     1     -17.706 -29.290   3.464  0.00  0.00    +0.029 C 
ENDBRANCH  13  14
ENDBRANCH   4  13
TORSDOF 4
ENDMDL
MODEL 6
REMARK minimizedAffinity -3.88666892
REMARK minimizedRMSD -1
REMARK  Name = /home/tchapet/Post-Doc/ARTICLES-DOSSIERS-DES-ARTICLES-EN-REDACTION/NOUVELS-AXES-DE-RECHERCHE-A-REGARDER-URGEMMENT/ARTICLES-EN-REDACTIONS/ARTICLE_MVOTO/Paper2_Sensors_ActuatorsB/docking_rerun/ligands/20778.pdb
REMARK  7 active torsions:
REMARK  status: ('A' for Active; 'I' for Inactive)
REMARK    1  A    between atoms: N2_2  and  N3_3
REMARK    2  A    between atoms: C2_6  and  N5_7
REMARK    3  A    between atoms: N5_7  and  C3_8
REMARK    4  A    between atoms: C3_8  and  C4_9
REMARK    5  A    between atoms: C3_8  and  C5_10
REMARK    6  A    between atoms: C6_12  and  S1_14
REMARK    7  A    between atoms: S1_14  and  C7_15
REMARK                            x       y       z     vdW  Elec       q    Type
REMARK                         _______ _______ _______ _____ _____    ______ ____
ROOT
ATOM      1  N3  UNL     1      14.845   7.680  13.801  0.00  0.00    -0.126 N 
ATOM      2  C1  UNL     1      15.510   6.543  13.247  0.00  0.00    +0.252 A 
ATOM      3  N4  UNL     1      15.213   6.133  11.987  0.00  0.00    -0.178 NA
ATOM      4  C2  UNL     1      15.838   5.055  11.451  0.00  0.00    +0.240 A 
ATOM      5  N6  UNL     1      16.766   4.386  12.182  0.00  0.00    -0.187 NA
ATOM      6  C6  UNL     1      17.068   4.791  13.440  0.00  0.00    +0.194 A 
ATOM      7  N7  UNL     1      16.440   5.869  13.973  0.00  0.00    -0.187 NA
ATOM      8  H1  UNL     1      14.131   8.192  13.236  0.00  0.00    +0.193 HD
ENDROOT
BRANCH   1  10
ATOM      9  N1  UNL     1      15.361   8.463  16.093  0.00  0.00    -0.017 NA
ATOM     10  N2  UNL     1      15.128   8.109  15.056  0.00  0.00    -0.126 NA
ENDBRANCH   1  10
BRANCH   6  11
ATOM     11  S1  UNL     1      18.295   3.907  14.394  0.00  0.00    -0.089 S 
ATOM     12  C7  UNL     1      17.824   4.711  15.956  0.00  0.00    +0.093 C 
ENDBRANCH   6  11
BRANCH   4  13
ATOM     13  N5  UNL     1      15.510   4.644  10.117  0.00  0.00    -0.213 NA
BRANCH  13  14
ATOM     14  C3  UNL     1      15.019   3.327   9.705  0.00  0.00    +0.091 C 
ATOM     15  C4  UNL     1      14.129   3.430   8.462  0.00  0.00    +0.029 C 
ATOM     16  C5  UNL     1      16.174   2.342   9.501  0.00  0.00    +0.029 C 
ENDBRANCH  13  14
ENDBRANCH   4  13
TORSDOF 4
ENDMDL
MODEL 7
REMARK minimizedAffinity -3.8293314
REMARK minimizedRMSD -1
REMARK  Name = /home/tchapet/Post-Doc/ARTICLES-DOSSIERS-DES-ARTICLES-EN-REDACTION/NOUVELS-AXES-DE-RECHERCHE-A-REGARDER-URGEMMENT/ARTICLES-EN-REDACTIONS/ARTICLE_MVOTO/Paper2_Sensors_ActuatorsB/docking_rerun/ligands/20778.pdb
REMARK  7 active torsions:
REMARK  status: ('A' for Active; 'I' for Inactive)
REMARK    1  A    between atoms: N2_2  and  N3_3
REMARK    2  A    between atoms: C2_6  and  N5_7
REMARK    3  A    between atoms: N5_7  and  C3_8
REMARK    4  A    between atoms: C3_8  and  C4_9
REMARK    5  A    between atoms: C3_8  and  C5_10
REMARK    6  A    between atoms: C6_12  and  S1_14
REMARK    7  A    between atoms: S1_14  and  C7_15
REMARK                            x       y       z     vdW  Elec       q    Type
REMARK                         _______ _______ _______ _____ _____    ______ ____
ROOT
ATOM      1  N3  UNL     1      -1.540 -10.560   3.005  0.00  0.00    -0.126 N 
ATOM      2  C1  UNL     1      -1.302 -10.193   4.366  0.00  0.00    +0.252 A 
ATOM      3  N4  UNL     1      -1.627 -11.054   5.365  0.00  0.00    -0.178 NA
ATOM      4  C2  UNL     1      -1.406 -10.716   6.660  0.00  0.00    +0.240 A 
ATOM      5  N6  UNL     1      -0.855  -9.510   6.954  0.00  0.00    -0.187 NA
ATOM      6  C6  UNL     1      -0.526  -8.648   5.961  0.00  0.00    +0.194 A 
ATOM      7  N7  UNL     1      -0.750  -8.988   4.667  0.00  0.00    -0.187 NA
ATOM      8  H1  UNL     1      -1.964 -11.487   2.783  0.00  0.00    +0.193 HD
ENDROOT
BRANCH   1  10
ATOM      9  N1  UNL     1      -0.957  -9.021   1.154  0.00  0.00    -0.017 NA
ATOM     10  N2  UNL     1      -1.220  -9.717   1.992  0.00  0.00    -0.126 NA
ENDBRANCH   1  10
BRANCH   6  11
ATOM     11  S1  UNL     1       0.203  -7.064   6.358  0.00  0.00    -0.089 S 
ATOM     12  C7  UNL     1       1.827  -7.783   6.750  0.00  0.00    +0.093 C 
ENDBRANCH   6  11
BRANCH   4  13
ATOM     13  N5  UNL     1      -1.754 -11.643   7.696  0.00  0.00    -0.213 NA
BRANCH  13  14
ATOM     14  C3  UNL     1      -1.026 -12.862   8.058  0.00  0.00    +0.091 C 
ATOM     15  C4  UNL     1      -1.503 -14.061   7.233  0.00  0.00    +0.029 C 
ATOM     16  C5  UNL     1       0.488 -12.658   7.946  0.00  0.00    +0.029 C 
ENDBRANCH  13  14
ENDBRANCH   4  13
TORSDOF 4
ENDMDL
MODEL 8
REMARK minimizedAffinity -3.7824862
REMARK minimizedRMSD -1
REMARK  Name = /home/tchapet/Post-Doc/ARTICLES-DOSSIERS-DES-ARTICLES-EN-REDACTION/NOUVELS-AXES-DE-RECHERCHE-A-REGARDER-URGEMMENT/ARTICLES-EN-REDACTIONS/ARTICLE_MVOTO/Paper2_Sensors_ActuatorsB/docking_rerun/ligands/20778.pdb
REMARK  7 active torsions:
REMARK  status: ('A' for Active; 'I' for Inactive)
REMARK    1  A    between atoms: N2_2  and  N3_3
REMARK    2  A    between atoms: C2_6  and  N5_7
REMARK    3  A    between atoms: N5_7  and  C3_8
REMARK    4  A    between atoms: C3_8  and  C4_9
REMARK    5  A    between atoms: C3_8  and  C5_10
REMARK    6  A    between atoms: C6_12  and  S1_14
REMARK    7  A    between atoms: S1_14  and  C7_15
REMARK                            x       y       z     vdW  Elec       q    Type
REMARK                         _______ _______ _______ _____ _____    ______ ____
ROOT
ATOM      1  N3  UNL     1      -0.342  -8.044   7.719  0.00  0.00    -0.126 N 
ATOM      2  C1  UNL     1      -0.653  -9.254   7.026  0.00  0.00    +0.252 A 
ATOM      3  N4  UNL     1      -1.009 -10.362   7.727  0.00  0.00    -0.178 NA
ATOM      4  C2  UNL     1      -1.306 -11.517   7.080  0.00  0.00    +0.240 A 
ATOM      5  N6  UNL     1      -1.247 -11.560   5.724  0.00  0.00    -0.187 NA
ATOM      6  C6  UNL     1      -0.894 -10.458   5.019  0.00  0.00    +0.194 A 
ATOM      7  N7  UNL     1      -0.596  -9.305   5.669  0.00  0.00    -0.187 NA
ATOM      8  H1  UNL     1      -0.388  -8.014   8.762  0.00  0.00    +0.193 HD
ENDROOT
BRANCH   1  10
ATOM      9  N1  UNL     1       0.306  -6.001   6.477  0.00  0.00    -0.017 NA
ATOM     10  N2  UNL     1       0.013  -6.925   7.039  0.00  0.00    -0.126 NA
ENDBRANCH   1  10
BRANCH   6  11
ATOM     11  S1  UNL     1      -0.822 -10.523   3.233  0.00  0.00    -0.089 S 
ATOM     12  C7  UNL     1      -0.353  -8.773   3.075  0.00  0.00    +0.093 C 
ENDBRANCH   6  11
BRANCH   4  13
ATOM     13  N5  UNL     1      -1.684 -12.671   7.842  0.00  0.00    -0.213 NA
BRANCH  13  14
ATOM     14  C3  UNL     1      -1.067 -13.998   7.779  0.00  0.00    +0.091 C 
ATOM     15  C4  UNL     1      -0.968 -14.632   9.170  0.00  0.00    +0.029 C 
ATOM     16  C5  UNL     1      -1.801 -14.907   6.788  0.00  0.00    +0.029 C 
ENDBRANCH  13  14
ENDBRANCH   4  13
TORSDOF 4
ENDMDL
MODEL 9
REMARK minimizedAffinity -3.74959135
REMARK minimizedRMSD -1
REMARK  Name = /home/tchapet/Post-Doc/ARTICLES-DOSSIERS-DES-ARTICLES-EN-REDACTION/NOUVELS-AXES-DE-RECHERCHE-A-REGARDER-URGEMMENT/ARTICLES-EN-REDACTIONS/ARTICLE_MVOTO/Paper2_Sensors_ActuatorsB/docking_rerun/ligands/20778.pdb
REMARK  7 active torsions:
REMARK  status: ('A' for Active; 'I' for Inactive)
REMARK    1  A    between atoms: N2_2  and  N3_3
REMARK    2  A    between atoms: C2_6  and  N5_7
REMARK    3  A    between atoms: N5_7  and  C3_8
REMARK    4  A    between atoms: C3_8  and  C4_9
REMARK    5  A    between atoms: C3_8  and  C5_10
REMARK    6  A    between atoms: C6_12  and  S1_14
REMARK    7  A    between atoms: S1_14  and  C7_15
REMARK                            x       y       z     vdW  Elec       q    Type
REMARK                         _______ _______ _______ _____ _____    ______ ____
ROOT
ATOM      1  N3  UNL     1     -25.035  -4.373   5.888  0.00  0.00    -0.126 N 
ATOM      2  C1  UNL     1     -23.737  -3.796   5.727  0.00  0.00    +0.252 A 
ATOM      3  N4  UNL     1     -23.233  -3.606   4.480  0.00  0.00    -0.178 NA
ATOM      4  C2  UNL     1     -22.002  -3.059   4.315  0.00  0.00    +0.240 A 
ATOM      5  N6  UNL     1     -21.275  -2.701   5.404  0.00  0.00    -0.187 NA
ATOM      6  C6  UNL     1     -21.774  -2.887   6.651  0.00  0.00    +0.194 A 
ATOM      7  N7  UNL     1     -23.005  -3.435   6.813  0.00  0.00    -0.187 NA
ATOM      8  H1  UNL     1     -25.591  -4.648   5.048  0.00  0.00    +0.193 HD
ENDROOT
BRANCH   1  10
ATOM      9  N1  UNL     1     -25.993  -4.732   8.143  0.00  0.00    -0.017 NA
ATOM     10  N2  UNL     1     -25.560  -4.570   7.123  0.00  0.00    -0.126 NA
ENDBRANCH   1  10
BRANCH   6  11
ATOM     11  S1  UNL     1     -20.812  -2.409   8.080  0.00  0.00    -0.089 S 
ATOM     12  C7  UNL     1     -19.660  -1.393   7.106  0.00  0.00    +0.093 C 
ENDBRANCH   6  11
BRANCH   4  13
ATOM     13  N5  UNL     1     -21.493  -2.864   2.989  0.00  0.00    -0.213 NA
BRANCH  13  14
ATOM     14  C3  UNL     1     -21.238  -1.579   2.332  0.00  0.00    +0.091 C 
ATOM     15  C4  UNL     1     -19.737  -1.285   2.248  0.00  0.00    +0.029 C 
ATOM     16  C5  UNL     1     -21.910  -1.515   0.957  0.00  0.00    +0.029 C 
ENDBRANCH  13  14
ENDBRANCH   4  13
TORSDOF 4
ENDMDL
