MODEL 1
REMARK minimizedAffinity -6.36892509
REMARK minimizedRMSD -1
REMARK  Name = /home/tchapet/Post-Doc/ARTICLES-DOSSIERS-DES-ARTICLES-EN-REDACTION/NOUVELS-AXES-DE-RECHERCHE-A-REGARDER-URGEMMENT/ARTICLES-EN-REDACTIONS/ARTICLE_MVOTO/Paper2_JCIM/docking_rerun/ligands/23424.pdb
REMARK  12 active torsions:
REMARK  status: ('A' for Active; 'I' for Inactive)
REMARK    1  A    between atoms: N1_2  and  C1_3
REMARK    2  A    between atoms: C4_6  and  N2_9
REMARK    3  A    between atoms: N2_9  and  C7_10
REMARK    4  A    between atoms: N2_9  and  C10_17
REMARK    5  A    between atoms: C7_10  and  C8_11
REMARK    6  A    between atoms: C8_11  and  O2_12
REMARK    7  A    between atoms: O2_12  and  S1_13
REMARK    8  A    between atoms: S1_13  and  C9_16
REMARK    9  A    between atoms: C10_17  and  C11_18
REMARK   10  A    between atoms: C11_18  and  O5_19
REMARK   11  A    between atoms: O5_19  and  S2_20
REMARK   12  A    between atoms: S2_20  and  C12_23
REMARK                            x       y       z     vdW  Elec       q    Type
REMARK                         _______ _______ _______ _____ _____    ______ ____
ROOT
ATOM      1  N2  UNL     1      -9.503  14.938  26.753  0.00  0.00    -0.325 N 
ENDROOT
BRANCH   1   5
ATOM      2  C1  UNL     1      -9.478  16.375  22.750  0.00  0.00    +0.108 A 
ATOM      3  C2  UNL     1     -10.607  16.554  23.557  0.00  0.00    +0.033 A 
ATOM      4  C3  UNL     1     -10.614  16.087  24.875  0.00  0.00    +0.025 A 
ATOM      5  C4  UNL     1      -9.489  15.434  25.402  0.00  0.00    +0.030 A 
ATOM      6  C5  UNL     1      -8.358  15.253  24.592  0.00  0.00    +0.025 A 
ATOM      7  C6  UNL     1      -8.350  15.722  23.275  0.00  0.00    +0.033 A 
BRANCH   2   9
ATOM      8  O1  UNL     1      -9.067  17.995  21.107  0.00  0.00    -0.143 OA
ATOM      9  N1  UNL     1      -9.498  16.862  21.405  0.00  0.00    -0.031 NA
ENDBRANCH   2   9
ENDBRANCH   1   5
BRANCH   1  10
ATOM     10  C7  UNL     1     -10.739  14.370  27.309  0.00  0.00    +0.135 C 
BRANCH  10  11
ATOM     11  C8  UNL     1     -10.610  14.189  28.819  0.00  0.00    +0.212 C 
BRANCH  11  12
ATOM     12  O2  UNL     1     -11.666  14.871  29.454  0.00  0.00    -0.237 OA
BRANCH  12  13
ATOM     13  S1  UNL     1     -11.014  15.997  30.543  0.00  0.00    +0.079 S 
ATOM     14  O3  UNL     1      -9.612  15.576  30.877  0.00  0.00    -0.147 OA
ATOM     15  O4  UNL     1     -11.822  16.028  31.811  0.00  0.00    -0.147 OA
ATOM     16  C9  UNL     1     -10.955  17.628  29.825  0.00  0.00    +0.228 C 
ENDBRANCH  12  13
ENDBRANCH  11  12
ENDBRANCH  10  11
ENDBRANCH   1  10
BRANCH   1  17
ATOM     17  C10 UNL     1      -8.278  14.991  27.567  0.00  0.00    +0.135 C 
BRANCH  17  18
ATOM     18  C11 UNL     1      -7.948  16.434  27.952  0.00  0.00    +0.212 C 
BRANCH  18  19
ATOM     19  O5  UNL     1      -6.782  16.845  27.280  0.00  0.00    -0.237 OA
BRANCH  19  20
ATOM     20  S2  UNL     1      -7.066  18.345  26.543  0.00  0.00    +0.079 S 
ATOM     21  O6  UNL     1      -6.438  19.416  27.388  0.00  0.00    -0.147 OA
ATOM     22  O7  UNL     1      -8.545  18.603  26.457  0.00  0.00    -0.147 OA
ATOM     23  C12 UNL     1      -6.345  18.417  24.915  0.00  0.00    +0.228 C 
ENDBRANCH  19  20
ENDBRANCH  18  19
ENDBRANCH  17  18
ENDBRANCH   1  17
TORSDOF 10
ENDMDL
MODEL 2
REMARK minimizedAffinity -6.34080553
REMARK minimizedRMSD -1
REMARK  Name = /home/tchapet/Post-Doc/ARTICLES-DOSSIERS-DES-ARTICLES-EN-REDACTION/NOUVELS-AXES-DE-RECHERCHE-A-REGARDER-URGEMMENT/ARTICLES-EN-REDACTIONS/ARTICLE_MVOTO/Paper2_JCIM/docking_rerun/ligands/23424.pdb
REMARK  12 active torsions:
REMARK  status: ('A' for Active; 'I' for Inactive)
REMARK    1  A    between atoms: N1_2  and  C1_3
REMARK    2  A    between atoms: C4_6  and  N2_9
REMARK    3  A    between atoms: N2_9  and  C7_10
REMARK    4  A    between atoms: N2_9  and  C10_17
REMARK    5  A    between atoms: C7_10  and  C8_11
REMARK    6  A    between atoms: C8_11  and  O2_12
REMARK    7  A    between atoms: O2_12  and  S1_13
REMARK    8  A    between atoms: S1_13  and  C9_16
REMARK    9  A    between atoms: C10_17  and  C11_18
REMARK   10  A    between atoms: C11_18  and  O5_19
REMARK   11  A    between atoms: O5_19  and  S2_20
REMARK   12  A    between atoms: S2_20  and  C12_23
REMARK                            x       y       z     vdW  Elec       q    Type
REMARK                         _______ _______ _______ _____ _____    ______ ____
ROOT
ATOM      1  N2  UNL     1      -9.667  16.564  28.309  0.00  0.00    -0.325 N 
ENDROOT
BRANCH   1   5
ATOM      2  C1  UNL     1      -9.668  16.628  32.562  0.00  0.00    +0.108 A 
ATOM      3  C2  UNL     1     -10.800  16.195  31.863  0.00  0.00    +0.033 A 
ATOM      4  C3  UNL     1     -10.799  16.167  30.465  0.00  0.00    +0.025 A 
ATOM      5  C4  UNL     1      -9.663  16.575  29.749  0.00  0.00    +0.030 A 
ATOM      6  C5  UNL     1      -8.528  17.011  30.451  0.00  0.00    +0.025 A 
ATOM      7  C6  UNL     1      -8.529  17.036  31.848  0.00  0.00    +0.033 A 
BRANCH   2   9
ATOM      8  O1  UNL     1     -10.746  16.878  34.628  0.00  0.00    -0.143 OA
ATOM      9  N1  UNL     1      -9.697  16.646  33.993  0.00  0.00    -0.031 NA
ENDBRANCH   2   9
ENDBRANCH   1   5
BRANCH   1  10
ATOM     10  C7  UNL     1      -9.963  17.800  27.572  0.00  0.00    +0.135 C 
BRANCH  10  11
ATOM     11  C8  UNL     1      -8.808  18.152  26.637  0.00  0.00    +0.212 C 
BRANCH  11  12
ATOM     12  O2  UNL     1      -9.250  18.050  25.304  0.00  0.00    -0.237 OA
BRANCH  12  13
ATOM     13  S1  UNL     1      -8.060  17.256  24.392  0.00  0.00    +0.079 S 
ATOM     14  O3  UNL     1      -6.838  17.091  25.249  0.00  0.00    -0.147 OA
ATOM     15  O4  UNL     1      -7.694  18.074  23.184  0.00  0.00    -0.147 OA
ATOM     16  C9  UNL     1      -8.611  15.639  23.881  0.00  0.00    +0.228 C 
ENDBRANCH  12  13
ENDBRANCH  11  12
ENDBRANCH  10  11
ENDBRANCH   1  10
BRANCH   1  17
ATOM     17  C10 UNL     1      -9.364  15.320  27.585  0.00  0.00    +0.135 C 
BRANCH  17  18
ATOM     18  C11 UNL     1     -10.635  14.727  26.976  0.00  0.00    +0.212 C 
BRANCH  18  19
ATOM     19  O5  UNL     1     -10.871  13.454  27.530  0.00  0.00    -0.237 OA
BRANCH  19  20
ATOM     20  S2  UNL     1     -12.443  13.407  28.162  0.00  0.00    +0.079 S 
ATOM     21  O6  UNL     1     -13.269  12.484  27.313  0.00  0.00    -0.147 OA
ATOM     22  O7  UNL     1     -13.055  14.779  28.120  0.00  0.00    -0.147 OA
ATOM     23  C12 UNL     1     -12.453  12.794  29.835  0.00  0.00    +0.228 C 
ENDBRANCH  19  20
ENDBRANCH  18  19
ENDBRANCH  17  18
ENDBRANCH   1  17
TORSDOF 10
ENDMDL
MODEL 3
REMARK minimizedAffinity -6.28540468
REMARK minimizedRMSD -1
REMARK  Name = /home/tchapet/Post-Doc/ARTICLES-DOSSIERS-DES-ARTICLES-EN-REDACTION/NOUVELS-AXES-DE-RECHERCHE-A-REGARDER-URGEMMENT/ARTICLES-EN-REDACTIONS/ARTICLE_MVOTO/Paper2_JCIM/docking_rerun/ligands/23424.pdb
REMARK  12 active torsions:
REMARK  status: ('A' for Active; 'I' for Inactive)
REMARK    1  A    between atoms: N1_2  and  C1_3
REMARK    2  A    between atoms: C4_6  and  N2_9
REMARK    3  A    between atoms: N2_9  and  C7_10
REMARK    4  A    between atoms: N2_9  and  C10_17
REMARK    5  A    between atoms: C7_10  and  C8_11
REMARK    6  A    between atoms: C8_11  and  O2_12
REMARK    7  A    between atoms: O2_12  and  S1_13
REMARK    8  A    between atoms: S1_13  and  C9_16
REMARK    9  A    between atoms: C10_17  and  C11_18
REMARK   10  A    between atoms: C11_18  and  O5_19
REMARK   11  A    between atoms: O5_19  and  S2_20
REMARK   12  A    between atoms: S2_20  and  C12_23
REMARK                            x       y       z     vdW  Elec       q    Type
REMARK                         _______ _______ _______ _____ _____    ______ ____
ROOT
ATOM      1  N2  UNL     1      -9.510  16.556  28.306  0.00  0.00    -0.325 N 
ENDROOT
BRANCH   1   5
ATOM      2  C1  UNL     1      -9.622  16.593  32.558  0.00  0.00    +0.108 A 
ATOM      3  C2  UNL     1     -10.772  16.280  31.824  0.00  0.00    +0.033 A 
ATOM      4  C3  UNL     1     -10.735  16.261  30.427  0.00  0.00    +0.025 A 
ATOM      5  C4  UNL     1      -9.544  16.558  29.745  0.00  0.00    +0.030 A 
ATOM      6  C5  UNL     1      -8.392  16.873  30.481  0.00  0.00    +0.025 A 
ATOM      7  C6  UNL     1      -8.429  16.889  31.878  0.00  0.00    +0.033 A 
BRANCH   2   9
ATOM      8  O1  UNL     1     -10.747  16.866  34.596  0.00  0.00    -0.143 OA
ATOM      9  N1  UNL     1      -9.688  16.605  33.987  0.00  0.00    -0.031 NA
ENDBRANCH   2   9
ENDBRANCH   1   5
BRANCH   1  10
ATOM     10  C7  UNL     1      -9.281  15.297  27.584  0.00  0.00    +0.135 C 
BRANCH  10  11
ATOM     11  C8  UNL     1     -10.588  14.780  26.987  0.00  0.00    +0.212 C 
BRANCH  11  12
ATOM     12  O2  UNL     1     -10.848  13.493  27.497  0.00  0.00    -0.237 OA
BRANCH  12  13
ATOM     13  S1  UNL     1     -12.395  13.481  28.190  0.00  0.00    +0.079 S 
ATOM     14  O3  UNL     1     -13.255  12.524  27.414  0.00  0.00    -0.147 OA
ATOM     15  O4  UNL     1     -13.014  14.850  28.117  0.00  0.00    -0.147 OA
ATOM     16  C9  UNL     1     -12.338  12.936  29.887  0.00  0.00    +0.228 C 
ENDBRANCH  12  13
ENDBRANCH  11  12
ENDBRANCH  10  11
ENDBRANCH   1  10
BRANCH   1  17
ATOM     17  C10 UNL     1      -9.717  17.811  27.566  0.00  0.00    +0.135 C 
BRANCH  17  18
ATOM     18  C11 UNL     1      -8.653  17.978  26.480  0.00  0.00    +0.212 C 
BRANCH  18  19
ATOM     19  O5  UNL     1      -9.276  18.052  25.220  0.00  0.00    -0.237 OA
BRANCH  19  20
ATOM     20  S2  UNL     1      -8.257  17.357  24.057  0.00  0.00    +0.079 S 
ATOM     21  O6  UNL     1      -9.104  16.854  22.923  0.00  0.00    -0.147 OA
ATOM     22  O7  UNL     1      -7.511  16.197  24.654  0.00  0.00    -0.147 OA
ATOM     23  C12 UNL     1      -7.100  18.549  23.411  0.00  0.00    +0.228 C 
ENDBRANCH  19  20
ENDBRANCH  18  19
ENDBRANCH  17  18
ENDBRANCH   1  17
TORSDOF 10
ENDMDL
MODEL 4
REMARK minimizedAffinity -6.21805334
REMARK minimizedRMSD -1
REMARK  Name = /home/tchapet/Post-Doc/ARTICLES-DOSSIERS-DES-ARTICLES-EN-REDACTION/NOUVELS-AXES-DE-RECHERCHE-A-REGARDER-URGEMMENT/ARTICLES-EN-REDACTIONS/ARTICLE_MVOTO/Paper2_JCIM/docking_rerun/ligands/23424.pdb
REMARK  12 active torsions:
REMARK  status: ('A' for Active; 'I' for Inactive)
REMARK    1  A    between atoms: N1_2  and  C1_3
REMARK    2  A    between atoms: C4_6  and  N2_9
REMARK    3  A    between atoms: N2_9  and  C7_10
REMARK    4  A    between atoms: N2_9  and  C10_17
REMARK    5  A    between atoms: C7_10  and  C8_11
REMARK    6  A    between atoms: C8_11  and  O2_12
REMARK    7  A    between atoms: O2_12  and  S1_13
REMARK    8  A    between atoms: S1_13  and  C9_16
REMARK    9  A    between atoms: C10_17  and  C11_18
REMARK   10  A    between atoms: C11_18  and  O5_19
REMARK   11  A    between atoms: O5_19  and  S2_20
REMARK   12  A    between atoms: S2_20  and  C12_23
REMARK                            x       y       z     vdW  Elec       q    Type
REMARK                         _______ _______ _______ _____ _____    ______ ____
ROOT
ATOM      1  N2  UNL     1      -9.722  16.210  27.279  0.00  0.00    -0.325 N 
ENDROOT
BRANCH   1   5
ATOM      2  C1  UNL     1      -8.901  16.966  23.174  0.00  0.00    +0.108 A 
ATOM      3  C2  UNL     1      -8.211  17.664  24.172  0.00  0.00    +0.033 A 
ATOM      4  C3  UNL     1      -8.475  17.412  25.522  0.00  0.00    +0.025 A 
ATOM      5  C4  UNL     1      -9.437  16.458  25.890  0.00  0.00    +0.030 A 
ATOM      6  C5  UNL     1     -10.131  15.760  24.888  0.00  0.00    +0.025 A 
ATOM      7  C6  UNL     1      -9.864  16.011  23.540  0.00  0.00    +0.033 A 
BRANCH   2   9
ATOM      8  O1  UNL     1      -9.417  17.853  21.067  0.00  0.00    -0.143 OA
ATOM      9  N1  UNL     1      -8.611  17.245  21.801  0.00  0.00    -0.031 NA
ENDBRANCH   2   9
ENDBRANCH   1   5
BRANCH   1  10
ATOM     10  C7  UNL     1      -9.410  14.899  27.864  0.00  0.00    +0.135 C 
BRANCH  10  11
ATOM     11  C8  UNL     1     -10.681  14.234  28.388  0.00  0.00    +0.212 C 
BRANCH  11  12
ATOM     12  O2  UNL     1     -11.160  13.333  27.418  0.00  0.00    -0.237 OA
BRANCH  12  13
ATOM     13  S1  UNL     1     -12.719  12.831  27.860  0.00  0.00    +0.079 S 
ATOM     14  O3  UNL     1     -12.599  11.858  28.998  0.00  0.00    -0.147 OA
ATOM     15  O4  UNL     1     -13.393  12.139  26.706  0.00  0.00    -0.147 OA
ATOM     16  C9  UNL     1     -13.712  14.209  28.400  0.00  0.00    +0.228 C 
ENDBRANCH  12  13
ENDBRANCH  11  12
ENDBRANCH  10  11
ENDBRANCH   1  10
BRANCH   1  17
ATOM     17  C10 UNL     1     -10.312  17.273  28.107  0.00  0.00    +0.135 C 
BRANCH  17  18
ATOM     18  C11 UNL     1      -9.430  17.564  29.321  0.00  0.00    +0.212 C 
BRANCH  18  19
ATOM     19  O5  UNL     1     -10.182  17.395  30.500  0.00  0.00    -0.237 OA
BRANCH  19  20
ATOM     20  S2  UNL     1      -9.246  16.559  31.640  0.00  0.00    +0.079 S 
ATOM     21  O6  UNL     1      -8.541  17.566  32.504  0.00  0.00    -0.147 OA
ATOM     22  O7  UNL     1      -8.216  15.717  30.941  0.00  0.00    -0.147 OA
ATOM     23  C12 UNL     1     -10.258  15.531  32.684  0.00  0.00    +0.228 C 
ENDBRANCH  19  20
ENDBRANCH  18  19
ENDBRANCH  17  18
ENDBRANCH   1  17
TORSDOF 10
ENDMDL
MODEL 5
REMARK minimizedAffinity -6.17574501
REMARK minimizedRMSD -1
REMARK  Name = /home/tchapet/Post-Doc/ARTICLES-DOSSIERS-DES-ARTICLES-EN-REDACTION/NOUVELS-AXES-DE-RECHERCHE-A-REGARDER-URGEMMENT/ARTICLES-EN-REDACTIONS/ARTICLE_MVOTO/Paper2_JCIM/docking_rerun/ligands/23424.pdb
REMARK  12 active torsions:
REMARK  status: ('A' for Active; 'I' for Inactive)
REMARK    1  A    between atoms: N1_2  and  C1_3
REMARK    2  A    between atoms: C4_6  and  N2_9
REMARK    3  A    between atoms: N2_9  and  C7_10
REMARK    4  A    between atoms: N2_9  and  C10_17
REMARK    5  A    between atoms: C7_10  and  C8_11
REMARK    6  A    between atoms: C8_11  and  O2_12
REMARK    7  A    between atoms: O2_12  and  S1_13
REMARK    8  A    between atoms: S1_13  and  C9_16
REMARK    9  A    between atoms: C10_17  and  C11_18
REMARK   10  A    between atoms: C11_18  and  O5_19
REMARK   11  A    between atoms: O5_19  and  S2_20
REMARK   12  A    between atoms: S2_20  and  C12_23
REMARK                            x       y       z     vdW  Elec       q    Type
REMARK                         _______ _______ _______ _____ _____    ______ ____
ROOT
ATOM      1  N2  UNL     1      -9.627  16.190  27.242  0.00  0.00    -0.325 N 
ENDROOT
BRANCH   1   5
ATOM      2  C1  UNL     1      -8.836  17.122  23.168  0.00  0.00    +0.108 A 
ATOM      3  C2  UNL     1      -9.818  16.181  23.499  0.00  0.00    +0.033 A 
ATOM      4  C3  UNL     1     -10.084  15.879  24.838  0.00  0.00    +0.025 A 
ATOM      5  C4  UNL     1      -9.366  16.514  25.864  0.00  0.00    +0.030 A 
ATOM      6  C5  UNL     1      -8.380  17.455  25.532  0.00  0.00    +0.025 A 
ATOM      7  C6  UNL     1      -8.117  17.760  24.193  0.00  0.00    +0.033 A 
BRANCH   2   9
ATOM      8  O1  UNL     1      -9.498  17.763  21.013  0.00  0.00    -0.143 OA
ATOM      9  N1  UNL     1      -8.585  17.412  21.790  0.00  0.00    -0.031 NA
ENDBRANCH   2   9
ENDBRANCH   1   5
BRANCH   1  10
ATOM     10  C7  UNL     1     -10.080  17.241  28.164  0.00  0.00    +0.135 C 
BRANCH  10  11
ATOM     11  C8  UNL     1      -9.154  17.322  29.376  0.00  0.00    +0.212 C 
BRANCH  11  12
ATOM     12  O2  UNL     1      -9.933  17.338  30.548  0.00  0.00    -0.237 OA
BRANCH  12  13
ATOM     13  S1  UNL     1      -9.171  16.384  31.725  0.00  0.00    +0.079 S 
ATOM     14  O3  UNL     1      -7.912  17.080  32.158  0.00  0.00    -0.147 OA
ATOM     15  O4  UNL     1      -8.805  15.040  31.155  0.00  0.00    -0.147 OA
ATOM     16  C9  UNL     1     -10.213  16.168  33.155  0.00  0.00    +0.228 C 
ENDBRANCH  12  13
ENDBRANCH  11  12
ENDBRANCH  10  11
ENDBRANCH   1  10
BRANCH   1  17
ATOM     17  C10 UNL     1      -9.450  14.809  27.717  0.00  0.00    +0.135 C 
BRANCH  17  18
ATOM     18  C11 UNL     1     -10.771  14.245  28.241  0.00  0.00    +0.212 C 
BRANCH  18  19
ATOM     19  O5  UNL     1     -11.485  13.658  27.179  0.00  0.00    -0.237 OA
BRANCH  19  20
ATOM     20  S2  UNL     1     -12.890  12.933  27.789  0.00  0.00    +0.079 S 
ATOM     21  O6  UNL     1     -12.504  12.040  28.935  0.00  0.00    -0.147 OA
ATOM     22  O7  UNL     1     -13.541  12.096  26.724  0.00  0.00    -0.147 OA
ATOM     23  C12 UNL     1     -14.043  14.151  28.388  0.00  0.00    +0.228 C 
ENDBRANCH  19  20
ENDBRANCH  18  19
ENDBRANCH  17  18
ENDBRANCH   1  17
TORSDOF 10
ENDMDL
MODEL 6
REMARK minimizedAffinity -6.16853762
REMARK minimizedRMSD -1
REMARK  Name = /home/tchapet/Post-Doc/ARTICLES-DOSSIERS-DES-ARTICLES-EN-REDACTION/NOUVELS-AXES-DE-RECHERCHE-A-REGARDER-URGEMMENT/ARTICLES-EN-REDACTIONS/ARTICLE_MVOTO/Paper2_JCIM/docking_rerun/ligands/23424.pdb
REMARK  12 active torsions:
REMARK  status: ('A' for Active; 'I' for Inactive)
REMARK    1  A    between atoms: N1_2  and  C1_3
REMARK    2  A    between atoms: C4_6  and  N2_9
REMARK    3  A    between atoms: N2_9  and  C7_10
REMARK    4  A    between atoms: N2_9  and  C10_17
REMARK    5  A    between atoms: C7_10  and  C8_11
REMARK    6  A    between atoms: C8_11  and  O2_12
REMARK    7  A    between atoms: O2_12  and  S1_13
REMARK    8  A    between atoms: S1_13  and  C9_16
REMARK    9  A    between atoms: C10_17  and  C11_18
REMARK   10  A    between atoms: C11_18  and  O5_19
REMARK   11  A    between atoms: O5_19  and  S2_20
REMARK   12  A    between atoms: S2_20  and  C12_23
REMARK                            x       y       z     vdW  Elec       q    Type
REMARK                         _______ _______ _______ _____ _____    ______ ____
ROOT
ATOM      1  N2  UNL     1      -7.792  17.382  27.749  0.00  0.00    -0.325 N 
ENDROOT
BRANCH   1   5
ATOM      2  C1  UNL     1      -9.172  15.958  31.512  0.00  0.00    +0.108 A 
ATOM      3  C2  UNL     1      -8.843  15.056  30.493  0.00  0.00    +0.033 A 
ATOM      4  C3  UNL     1      -8.383  15.522  29.258  0.00  0.00    +0.025 A 
ATOM      5  C4  UNL     1      -8.248  16.900  29.026  0.00  0.00    +0.030 A 
ATOM      6  C5  UNL     1      -8.580  17.804  30.047  0.00  0.00    +0.025 A 
ATOM      7  C6  UNL     1      -9.037  17.337  31.283  0.00  0.00    +0.033 A 
BRANCH   2   9
ATOM      8  O1  UNL     1      -9.685  16.167  33.789  0.00  0.00    -0.143 OA
ATOM      9  N1  UNL     1      -9.640  15.452  32.766  0.00  0.00    -0.031 NA
ENDBRANCH   2   9
ENDBRANCH   1   5
BRANCH   1  10
ATOM     10  C7  UNL     1      -6.693  16.690  27.060  0.00  0.00    +0.135 C 
BRANCH  10  11
ATOM     11  C8  UNL     1      -5.614  17.687  26.644  0.00  0.00    +0.212 C 
BRANCH  11  12
ATOM     12  O2  UNL     1      -5.332  17.513  25.276  0.00  0.00    -0.237 OA
BRANCH  12  13
ATOM     13  S1  UNL     1      -5.232  19.038  24.539  0.00  0.00    +0.079 S 
ATOM     14  O3  UNL     1      -3.847  19.206  23.984  0.00  0.00    -0.147 OA
ATOM     15  O4  UNL     1      -5.482  20.125  25.548  0.00  0.00    -0.147 OA
ATOM     16  C9  UNL     1      -6.396  19.182  23.196  0.00  0.00    +0.228 C 
ENDBRANCH  12  13
ENDBRANCH  11  12
ENDBRANCH  10  11
ENDBRANCH   1  10
BRANCH   1  17
ATOM     17  C10 UNL     1      -8.434  18.554  27.135  0.00  0.00    +0.135 C 
BRANCH  17  18
ATOM     18  C11 UNL     1      -9.609  18.127  26.255  0.00  0.00    +0.212 C 
BRANCH  18  19
ATOM     19  O5  UNL     1      -9.143  17.835  24.958  0.00  0.00    -0.237 OA
BRANCH  19  20
ATOM     20  S2  UNL     1      -9.543  16.233  24.574  0.00  0.00    +0.079 S 
ATOM     21  O6  UNL     1     -10.633  16.251  23.540  0.00  0.00    -0.147 OA
ATOM     22  O7  UNL     1     -10.049  15.522  25.798  0.00  0.00    -0.147 OA
ATOM     23  C12 UNL     1      -8.144  15.357  23.902  0.00  0.00    +0.228 C 
ENDBRANCH  19  20
ENDBRANCH  18  19
ENDBRANCH  17  18
ENDBRANCH   1  17
TORSDOF 10
ENDMDL
MODEL 7
REMARK minimizedAffinity -6.03128052
REMARK minimizedRMSD -1
REMARK  Name = /home/tchapet/Post-Doc/ARTICLES-DOSSIERS-DES-ARTICLES-EN-REDACTION/NOUVELS-AXES-DE-RECHERCHE-A-REGARDER-URGEMMENT/ARTICLES-EN-REDACTIONS/ARTICLE_MVOTO/Paper2_JCIM/docking_rerun/ligands/23424.pdb
REMARK  12 active torsions:
REMARK  status: ('A' for Active; 'I' for Inactive)
REMARK    1  A    between atoms: N1_2  and  C1_3
REMARK    2  A    between atoms: C4_6  and  N2_9
REMARK    3  A    between atoms: N2_9  and  C7_10
REMARK    4  A    between atoms: N2_9  and  C10_17
REMARK    5  A    between atoms: C7_10  and  C8_11
REMARK    6  A    between atoms: C8_11  and  O2_12
REMARK    7  A    between atoms: O2_12  and  S1_13
REMARK    8  A    between atoms: S1_13  and  C9_16
REMARK    9  A    between atoms: C10_17  and  C11_18
REMARK   10  A    between atoms: C11_18  and  O5_19
REMARK   11  A    between atoms: O5_19  and  S2_20
REMARK   12  A    between atoms: S2_20  and  C12_23
REMARK                            x       y       z     vdW  Elec       q    Type
REMARK                         _______ _______ _______ _____ _____    ______ ____
ROOT
ATOM      1  N2  UNL     1     -10.122  16.224  27.210  0.00  0.00    -0.325 N 
ENDROOT
BRANCH   1   5
ATOM      2  C1  UNL     1      -8.818  17.105  23.258  0.00  0.00    +0.108 A 
ATOM      3  C2  UNL     1      -8.269  17.787  24.351  0.00  0.00    +0.033 A 
ATOM      4  C3  UNL     1      -8.693  17.493  25.651  0.00  0.00    +0.025 A 
ATOM      5  C4  UNL     1      -9.673  16.513  25.873  0.00  0.00    +0.030 A 
ATOM      6  C5  UNL     1     -10.224  15.832  24.777  0.00  0.00    +0.025 A 
ATOM      7  C6  UNL     1      -9.799  16.123  23.478  0.00  0.00    +0.033 A 
BRANCH   2   9
ATOM      8  O1  UNL     1      -7.776  18.496  21.686  0.00  0.00    -0.143 OA
ATOM      9  N1  UNL     1      -8.366  17.425  21.939  0.00  0.00    -0.031 NA
ENDBRANCH   2   9
ENDBRANCH   1   5
BRANCH   1  10
ATOM     10  C7  UNL     1     -11.149  17.070  27.833  0.00  0.00    +0.135 C 
BRANCH  10  11
ATOM     11  C8  UNL     1     -11.971  16.260  28.833  0.00  0.00    +0.212 C 
BRANCH  11  12
ATOM     12  O2  UNL     1     -13.127  15.776  28.192  0.00  0.00    -0.237 OA
BRANCH  12  13
ATOM     13  S1  UNL     1     -13.580  14.310  28.914  0.00  0.00    +0.079 S 
ATOM     14  O3  UNL     1     -13.772  13.288  27.830  0.00  0.00    -0.147 OA
ATOM     15  O4  UNL     1     -14.877  14.471  29.659  0.00  0.00    -0.147 OA
ATOM     16  C9  UNL     1     -12.316  13.720  30.025  0.00  0.00    +0.228 C 
ENDBRANCH  12  13
ENDBRANCH  11  12
ENDBRANCH  10  11
ENDBRANCH   1  10
BRANCH   1  17
ATOM     17  C10 UNL     1      -9.560  15.077  27.940  0.00  0.00    +0.135 C 
BRANCH  17  18
ATOM     18  C11 UNL     1      -8.501  15.541  28.941  0.00  0.00    +0.212 C 
BRANCH  18  19
ATOM     19  O5  UNL     1      -8.740  14.938  30.191  0.00  0.00    -0.237 OA
BRANCH  19  20
ATOM     20  S2  UNL     1      -8.991  16.148  31.351  0.00  0.00    +0.079 S 
ATOM     21  O6  UNL     1      -7.919  16.031  32.398  0.00  0.00    -0.147 OA
ATOM     22  O7  UNL     1     -10.330  15.961  32.008  0.00  0.00    -0.147 OA
ATOM     23  C12 UNL     1      -8.896  17.773  30.627  0.00  0.00    +0.228 C 
ENDBRANCH  19  20
ENDBRANCH  18  19
ENDBRANCH  17  18
ENDBRANCH   1  17
TORSDOF 10
ENDMDL
MODEL 8
REMARK minimizedAffinity -6.01233816
REMARK minimizedRMSD -1
REMARK  Name = /home/tchapet/Post-Doc/ARTICLES-DOSSIERS-DES-ARTICLES-EN-REDACTION/NOUVELS-AXES-DE-RECHERCHE-A-REGARDER-URGEMMENT/ARTICLES-EN-REDACTIONS/ARTICLE_MVOTO/Paper2_JCIM/docking_rerun/ligands/23424.pdb
REMARK  12 active torsions:
REMARK  status: ('A' for Active; 'I' for Inactive)
REMARK    1  A    between atoms: N1_2  and  C1_3
REMARK    2  A    between atoms: C4_6  and  N2_9
REMARK    3  A    between atoms: N2_9  and  C7_10
REMARK    4  A    between atoms: N2_9  and  C10_17
REMARK    5  A    between atoms: C7_10  and  C8_11
REMARK    6  A    between atoms: C8_11  and  O2_12
REMARK    7  A    between atoms: O2_12  and  S1_13
REMARK    8  A    between atoms: S1_13  and  C9_16
REMARK    9  A    between atoms: C10_17  and  C11_18
REMARK   10  A    between atoms: C11_18  and  O5_19
REMARK   11  A    between atoms: O5_19  and  S2_20
REMARK   12  A    between atoms: S2_20  and  C12_23
REMARK                            x       y       z     vdW  Elec       q    Type
REMARK                         _______ _______ _______ _____ _____    ______ ____
ROOT
ATOM      1  N2  UNL     1     -10.608  16.650  26.395  0.00  0.00    -0.325 N 
ENDROOT
BRANCH   1   5
ATOM      2  C1  UNL     1     -12.958  13.830  28.543  0.00  0.00    +0.108 A 
ATOM      3  C2  UNL     1     -11.814  13.414  27.852  0.00  0.00    +0.033 A 
ATOM      4  C3  UNL     1     -11.037  14.341  27.151  0.00  0.00    +0.025 A 
ATOM      5  C4  UNL     1     -11.397  15.698  27.131  0.00  0.00    +0.030 A 
ATOM      6  C5  UNL     1     -12.546  16.114  27.822  0.00  0.00    +0.025 A 
ATOM      7  C6  UNL     1     -13.321  15.187  28.526  0.00  0.00    +0.033 A 
BRANCH   2   9
ATOM      8  O1  UNL     1     -14.029  13.004  30.457  0.00  0.00    -0.143 OA
ATOM      9  N1  UNL     1     -13.734  12.860  29.252  0.00  0.00    -0.031 NA
ENDBRANCH   2   9
ENDBRANCH   1   5
BRANCH   1  10
ATOM     10  C7  UNL     1     -10.460  16.503  24.940  0.00  0.00    +0.135 C 
BRANCH  10  11
ATOM     11  C8  UNL     1      -8.985  16.542  24.548  0.00  0.00    +0.212 C 
BRANCH  11  12
ATOM     12  O2  UNL     1      -8.712  17.768  23.911  0.00  0.00    -0.237 OA
BRANCH  12  13
ATOM     13  S1  UNL     1      -8.233  17.460  22.313  0.00  0.00    +0.079 S 
ATOM     14  O3  UNL     1      -7.297  16.285  22.317  0.00  0.00    -0.147 OA
ATOM     15  O4  UNL     1      -7.510  18.649  21.744  0.00  0.00    -0.147 OA
ATOM     16  C9  UNL     1      -9.634  17.058  21.286  0.00  0.00    +0.228 C 
ENDBRANCH  12  13
ENDBRANCH  11  12
ENDBRANCH  10  11
ENDBRANCH   1  10
BRANCH   1  17
ATOM     17  C10 UNL     1      -9.963  17.770  27.098  0.00  0.00    +0.135 C 
BRANCH  17  18
ATOM     18  C11 UNL     1      -8.940  17.254  28.111  0.00  0.00    +0.212 C 
BRANCH  18  19
ATOM     19  O5  UNL     1      -9.446  17.418  29.415  0.00  0.00    -0.237 OA
BRANCH  19  20
ATOM     20  S2  UNL     1      -9.177  15.995  30.296  0.00  0.00    +0.079 S 
ATOM     21  O6  UNL     1      -8.449  15.021  29.415  0.00  0.00    -0.147 OA
ATOM     22  O7  UNL     1     -10.491  15.388  30.705  0.00  0.00    -0.147 OA
ATOM     23  C12 UNL     1      -8.180  16.303  31.740  0.00  0.00    +0.228 C 
ENDBRANCH  19  20
ENDBRANCH  18  19
ENDBRANCH  17  18
ENDBRANCH   1  17
TORSDOF 10
ENDMDL
MODEL 9
REMARK minimizedAffinity -5.92130375
REMARK minimizedRMSD -1
REMARK  Name = /home/tchapet/Post-Doc/ARTICLES-DOSSIERS-DES-ARTICLES-EN-REDACTION/NOUVELS-AXES-DE-RECHERCHE-A-REGARDER-URGEMMENT/ARTICLES-EN-REDACTIONS/ARTICLE_MVOTO/Paper2_JCIM/docking_rerun/ligands/23424.pdb
REMARK  12 active torsions:
REMARK  status: ('A' for Active; 'I' for Inactive)
REMARK    1  A    between atoms: N1_2  and  C1_3
REMARK    2  A    between atoms: C4_6  and  N2_9
REMARK    3  A    between atoms: N2_9  and  C7_10
REMARK    4  A    between atoms: N2_9  and  C10_17
REMARK    5  A    between atoms: C7_10  and  C8_11
REMARK    6  A    between atoms: C8_11  and  O2_12
REMARK    7  A    between atoms: O2_12  and  S1_13
REMARK    8  A    between atoms: S1_13  and  C9_16
REMARK    9  A    between atoms: C10_17  and  C11_18
REMARK   10  A    between atoms: C11_18  and  O5_19
REMARK   11  A    between atoms: O5_19  and  S2_20
REMARK   12  A    between atoms: S2_20  and  C12_23
REMARK                            x       y       z     vdW  Elec       q    Type
REMARK                         _______ _______ _______ _____ _____    ______ ____
ROOT
ATOM      1  N2  UNL     1      -9.689  15.865  27.345  0.00  0.00    -0.325 N 
ENDROOT
BRANCH   1   5
ATOM      2  C1  UNL     1      -9.796  16.364  23.122  0.00  0.00    +0.108 A 
ATOM      3  C2  UNL     1      -8.732  15.684  23.726  0.00  0.00    +0.033 A 
ATOM      4  C3  UNL     1      -8.699  15.514  25.113  0.00  0.00    +0.025 A 
ATOM      5  C4  UNL     1      -9.731  16.025  25.915  0.00  0.00    +0.030 A 
ATOM      6  C5  UNL     1     -10.797  16.709  25.310  0.00  0.00    +0.025 A 
ATOM      7  C6  UNL     1     -10.831  16.876  23.923  0.00  0.00    +0.033 A 
BRANCH   2   9
ATOM      8  O1  UNL     1      -9.568  17.624  21.159  0.00  0.00    -0.143 OA
ATOM      9  N1  UNL     1      -9.804  16.524  21.701  0.00  0.00    -0.031 NA
ENDBRANCH   2   9
ENDBRANCH   1   5
BRANCH   1  10
ATOM     10  C7  UNL     1      -9.628  17.053  28.209  0.00  0.00    +0.135 C 
BRANCH  10  11
ATOM     11  C8  UNL     1      -8.518  17.993  27.744  0.00  0.00    +0.212 C 
BRANCH  11  12
ATOM     12  O2  UNL     1      -7.286  17.316  27.811  0.00  0.00    -0.237 OA
BRANCH  12  13
ATOM     13  S1  UNL     1      -6.165  18.119  26.824  0.00  0.00    +0.079 S 
ATOM     14  O3  UNL     1      -6.015  19.527  27.325  0.00  0.00    -0.147 OA
ATOM     15  O4  UNL     1      -6.656  18.164  25.402  0.00  0.00    -0.147 OA
ATOM     16  C9  UNL     1      -4.568  17.328  26.884  0.00  0.00    +0.228 C 
ENDBRANCH  12  13
ENDBRANCH  11  12
ENDBRANCH  10  11
ENDBRANCH   1  10
BRANCH   1  17
ATOM     17  C10 UNL     1      -9.718  14.517  27.934  0.00  0.00    +0.135 C 
BRANCH  17  18
ATOM     18  C11 UNL     1     -11.115  13.907  27.816  0.00  0.00    +0.212 C 
BRANCH  18  19
ATOM     19  O5  UNL     1     -11.754  13.949  29.070  0.00  0.00    -0.237 OA
BRANCH  19  20
ATOM     20  S2  UNL     1     -13.305  14.605  28.881  0.00  0.00    +0.079 S 
ATOM     21  O6  UNL     1     -13.972  14.643  30.227  0.00  0.00    -0.147 OA
ATOM     22  O7  UNL     1     -14.121  13.738  27.962  0.00  0.00    -0.147 OA
ATOM     23  C12 UNL     1     -13.235  16.266  28.240  0.00  0.00    +0.228 C 
ENDBRANCH  19  20
ENDBRANCH  18  19
ENDBRANCH  17  18
ENDBRANCH   1  17
TORSDOF 10
ENDMDL
