MODEL 1
REMARK minimizedAffinity -5.21227217
REMARK minimizedRMSD -1
REMARK  Name = /home/tchapet/Post-Doc/ARTICLES-DOSSIERS-DES-ARTICLES-EN-REDACTION/NOUVELS-AXES-DE-RECHERCHE-A-REGARDER-URGEMMENT/ARTICLES-EN-REDACTIONS/ARTICLE_MVOTO/Paper2_JCIM/docking_rerun/ligands/23424.pdb
REMARK  12 active torsions:
REMARK  status: ('A' for Active; 'I' for Inactive)
REMARK    1  A    between atoms: N1_2  and  C1_3
REMARK    2  A    between atoms: C4_6  and  N2_9
REMARK    3  A    between atoms: N2_9  and  C7_10
REMARK    4  A    between atoms: N2_9  and  C10_17
REMARK    5  A    between atoms: C7_10  and  C8_11
REMARK    6  A    between atoms: C8_11  and  O2_12
REMARK    7  A    between atoms: O2_12  and  S1_13
REMARK    8  A    between atoms: S1_13  and  C9_16
REMARK    9  A    between atoms: C10_17  and  C11_18
REMARK   10  A    between atoms: C11_18  and  O5_19
REMARK   11  A    between atoms: O5_19  and  S2_20
REMARK   12  A    between atoms: S2_20  and  C12_23
REMARK                            x       y       z     vdW  Elec       q    Type
REMARK                         _______ _______ _______ _____ _____    ______ ____
ROOT
ATOM      1  N2  UNL     1      13.590  -1.651   5.569  0.00  0.00    -0.325 N 
ENDROOT
BRANCH   1   5
ATOM      2  C1  UNL     1      13.905  -0.074   9.507  0.00  0.00    +0.108 A 
ATOM      3  C2  UNL     1      13.595   0.768   8.432  0.00  0.00    +0.033 A 
ATOM      4  C3  UNL     1      13.485   0.250   7.138  0.00  0.00    +0.025 A 
ATOM      5  C4  UNL     1      13.686  -1.120   6.903  0.00  0.00    +0.030 A 
ATOM      6  C5  UNL     1      13.999  -1.963   7.981  0.00  0.00    +0.025 A 
ATOM      7  C6  UNL     1      14.107  -1.445   9.275  0.00  0.00    +0.033 A 
BRANCH   2   9
ATOM      8  O1  UNL     1      13.312   0.073  11.769  0.00  0.00    -0.143 OA
ATOM      9  N1  UNL     1      14.012   0.484  10.820  0.00  0.00    -0.031 NA
ENDBRANCH   2   9
ENDBRANCH   1   5
BRANCH   1  10
ATOM     10  C7  UNL     1      13.297  -3.077   5.372  0.00  0.00    +0.135 C 
BRANCH  10  11
ATOM     11  C8  UNL     1      14.251  -3.679   4.342  0.00  0.00    +0.212 C 
BRANCH  11  12
ATOM     12  O2  UNL     1      14.347  -5.066   4.562  0.00  0.00    -0.237 OA
BRANCH  12  13
ATOM     13  S1  UNL     1      15.882  -5.594   4.070  0.00  0.00    +0.079 S 
ATOM     14  O3  UNL     1      15.779  -7.037   3.665  0.00  0.00    -0.147 OA
ATOM     15  O4  UNL     1      16.863  -5.482   5.204  0.00  0.00    -0.147 OA
ATOM     16  C9  UNL     1      16.468  -4.658   2.670  0.00  0.00    +0.228 C 
ENDBRANCH  12  13
ENDBRANCH  11  12
ENDBRANCH  10  11
ENDBRANCH   1  10
BRANCH   1  17
ATOM     17  C10 UNL     1      13.774  -0.762   4.411  0.00  0.00    +0.135 C 
BRANCH  17  18
ATOM     18  C11 UNL     1      12.424  -0.386   3.799  0.00  0.00    +0.212 C 
BRANCH  18  19
ATOM     19  O5  UNL     1      12.467   0.948   3.350  0.00  0.00    -0.237 OA
BRANCH  19  20
ATOM     20  S2  UNL     1      12.247   0.973   1.669  0.00  0.00    +0.079 S 
ATOM     21  O6  UNL     1      10.782   1.148   1.385  0.00  0.00    -0.147 OA
ATOM     22  O7  UNL     1      12.703  -0.329   1.071  0.00  0.00    -0.147 OA
ATOM     23  C12 UNL     1      13.132   2.325   0.918  0.00  0.00    +0.228 C 
ENDBRANCH  19  20
ENDBRANCH  18  19
ENDBRANCH  17  18
ENDBRANCH   1  17
TORSDOF 10
ENDMDL
MODEL 2
REMARK minimizedAffinity -5.1493063
REMARK minimizedRMSD -1
REMARK  Name = /home/tchapet/Post-Doc/ARTICLES-DOSSIERS-DES-ARTICLES-EN-REDACTION/NOUVELS-AXES-DE-RECHERCHE-A-REGARDER-URGEMMENT/ARTICLES-EN-REDACTIONS/ARTICLE_MVOTO/Paper2_JCIM/docking_rerun/ligands/23424.pdb
REMARK  12 active torsions:
REMARK  status: ('A' for Active; 'I' for Inactive)
REMARK    1  A    between atoms: N1_2  and  C1_3
REMARK    2  A    between atoms: C4_6  and  N2_9
REMARK    3  A    between atoms: N2_9  and  C7_10
REMARK    4  A    between atoms: N2_9  and  C10_17
REMARK    5  A    between atoms: C7_10  and  C8_11
REMARK    6  A    between atoms: C8_11  and  O2_12
REMARK    7  A    between atoms: O2_12  and  S1_13
REMARK    8  A    between atoms: S1_13  and  C9_16
REMARK    9  A    between atoms: C10_17  and  C11_18
REMARK   10  A    between atoms: C11_18  and  O5_19
REMARK   11  A    between atoms: O5_19  and  S2_20
REMARK   12  A    between atoms: S2_20  and  C12_23
REMARK                            x       y       z     vdW  Elec       q    Type
REMARK                         _______ _______ _______ _____ _____    ______ ____
ROOT
ATOM      1  N2  UNL     1      15.215  -5.366   4.070  0.00  0.00    -0.325 N 
ENDROOT
BRANCH   1   5
ATOM      2  C1  UNL     1      15.195  -4.019   8.104  0.00  0.00    +0.108 A 
ATOM      3  C2  UNL     1      14.053  -3.877   7.307  0.00  0.00    +0.033 A 
ATOM      4  C3  UNL     1      14.057  -4.325   5.983  0.00  0.00    +0.025 A 
ATOM      5  C4  UNL     1      15.206  -4.921   5.438  0.00  0.00    +0.030 A 
ATOM      6  C5  UNL     1      16.350  -5.061   6.238  0.00  0.00    +0.025 A 
ATOM      7  C6  UNL     1      16.346  -4.616   7.562  0.00  0.00    +0.033 A 
BRANCH   2   9
ATOM      8  O1  UNL     1      14.406  -2.627   9.816  0.00  0.00    -0.143 OA
ATOM      9  N1  UNL     1      15.164  -3.551   9.456  0.00  0.00    -0.031 NA
ENDBRANCH   2   9
ENDBRANCH   1   5
BRANCH   1  10
ATOM     10  C7  UNL     1      15.996  -6.554   3.696  0.00  0.00    +0.135 C 
BRANCH  10  11
ATOM     11  C8  UNL     1      16.616  -6.369   2.313  0.00  0.00    +0.212 C 
BRANCH  11  12
ATOM     12  O2  UNL     1      16.000  -7.258   1.411  0.00  0.00    -0.237 OA
BRANCH  12  13
ATOM     13  S1  UNL     1      15.786  -6.469  -0.075  0.00  0.00    +0.079 S 
ATOM     14  O3  UNL     1      14.315  -6.246  -0.286  0.00  0.00    -0.147 OA
ATOM     15  O4  UNL     1      16.310  -7.319  -1.200  0.00  0.00    -0.147 OA
ATOM     16  C9  UNL     1      16.601  -4.884  -0.087  0.00  0.00    +0.228 C 
ENDBRANCH  12  13
ENDBRANCH  11  12
ENDBRANCH  10  11
ENDBRANCH   1  10
BRANCH   1  17
ATOM     17  C10 UNL     1      14.435  -4.639   3.056  0.00  0.00    +0.135 C 
BRANCH  17  18
ATOM     18  C11 UNL     1      14.975  -3.220   2.876  0.00  0.00    +0.212 C 
BRANCH  18  19
ATOM     19  O5  UNL     1      14.084  -2.476   2.078  0.00  0.00    -0.237 OA
BRANCH  19  20
ATOM     20  S2  UNL     1      13.713  -1.023   2.869  0.00  0.00    +0.079 S 
ATOM     21  O6  UNL     1      14.883  -0.092   2.723  0.00  0.00    -0.147 OA
ATOM     22  O7  UNL     1      13.480  -1.279   4.331  0.00  0.00    -0.147 OA
ATOM     23  C12 UNL     1      12.279  -0.242   2.156  0.00  0.00    +0.228 C 
ENDBRANCH  19  20
ENDBRANCH  18  19
ENDBRANCH  17  18
ENDBRANCH   1  17
TORSDOF 10
ENDMDL
MODEL 3
REMARK minimizedAffinity -5.05096436
REMARK minimizedRMSD -1
REMARK  Name = /home/tchapet/Post-Doc/ARTICLES-DOSSIERS-DES-ARTICLES-EN-REDACTION/NOUVELS-AXES-DE-RECHERCHE-A-REGARDER-URGEMMENT/ARTICLES-EN-REDACTIONS/ARTICLE_MVOTO/Paper2_JCIM/docking_rerun/ligands/23424.pdb
REMARK  12 active torsions:
REMARK  status: ('A' for Active; 'I' for Inactive)
REMARK    1  A    between atoms: N1_2  and  C1_3
REMARK    2  A    between atoms: C4_6  and  N2_9
REMARK    3  A    between atoms: N2_9  and  C7_10
REMARK    4  A    between atoms: N2_9  and  C10_17
REMARK    5  A    between atoms: C7_10  and  C8_11
REMARK    6  A    between atoms: C8_11  and  O2_12
REMARK    7  A    between atoms: O2_12  and  S1_13
REMARK    8  A    between atoms: S1_13  and  C9_16
REMARK    9  A    between atoms: C10_17  and  C11_18
REMARK   10  A    between atoms: C11_18  and  O5_19
REMARK   11  A    between atoms: O5_19  and  S2_20
REMARK   12  A    between atoms: S2_20  and  C12_23
REMARK                            x       y       z     vdW  Elec       q    Type
REMARK                         _______ _______ _______ _____ _____    ______ ____
ROOT
ATOM      1  N2  UNL     1      13.553  -1.365   5.407  0.00  0.00    -0.325 N 
ENDROOT
BRANCH   1   5
ATOM      2  C1  UNL     1      13.693  -0.258   9.511  0.00  0.00    +0.108 A 
ATOM      3  C2  UNL     1      13.892  -1.590   9.133  0.00  0.00    +0.033 A 
ATOM      4  C3  UNL     1      13.852  -1.955   7.783  0.00  0.00    +0.025 A 
ATOM      5  C4  UNL     1      13.611  -0.988   6.794  0.00  0.00    +0.030 A 
ATOM      6  C5  UNL     1      13.410   0.348   7.175  0.00  0.00    +0.025 A 
ATOM      7  C6  UNL     1      13.452   0.712   8.524  0.00  0.00    +0.033 A 
BRANCH   2   9
ATOM      8  O1  UNL     1      12.751  -0.061  11.648  0.00  0.00    -0.143 OA
ATOM      9  N1  UNL     1      13.739   0.087  10.899  0.00  0.00    -0.031 NA
ENDBRANCH   2   9
ENDBRANCH   1   5
BRANCH   1  10
ATOM     10  C7  UNL     1      13.385  -2.779   5.043  0.00  0.00    +0.135 C 
BRANCH  10  11
ATOM     11  C8  UNL     1      14.454  -3.199   4.036  0.00  0.00    +0.212 C 
BRANCH  11  12
ATOM     12  O2  UNL     1      14.240  -4.543   3.674  0.00  0.00    -0.237 OA
BRANCH  12  13
ATOM     13  S1  UNL     1      15.701  -5.390   3.824  0.00  0.00    +0.079 S 
ATOM     14  O3  UNL     1      16.690  -4.803   2.858  0.00  0.00    -0.147 OA
ATOM     15  O4  UNL     1      15.502  -6.843   3.486  0.00  0.00    -0.147 OA
ATOM     16  C9  UNL     1      16.367  -5.241   5.471  0.00  0.00    +0.228 C 
ENDBRANCH  12  13
ENDBRANCH  11  12
ENDBRANCH  10  11
ENDBRANCH   1  10
BRANCH   1  17
ATOM     17  C10 UNL     1      13.648  -0.334   4.361  0.00  0.00    +0.135 C 
BRANCH  17  18
ATOM     18  C11 UNL     1      12.329  -0.216   3.598  0.00  0.00    +0.212 C 
BRANCH  18  19
ATOM     19  O5  UNL     1      12.220   1.075   3.046  0.00  0.00    -0.237 OA
BRANCH  19  20
ATOM     20  S2  UNL     1      12.708   1.027   1.424  0.00  0.00    +0.079 S 
ATOM     21  O6  UNL     1      11.685   1.754   0.598  0.00  0.00    -0.147 OA
ATOM     22  O7  UNL     1      12.785  -0.399   0.952  0.00  0.00    -0.147 OA
ATOM     23  C12 UNL     1      14.286   1.823   1.195  0.00  0.00    +0.228 C 
ENDBRANCH  19  20
ENDBRANCH  18  19
ENDBRANCH  17  18
ENDBRANCH   1  17
TORSDOF 10
ENDMDL
MODEL 4
REMARK minimizedAffinity -4.91458464
REMARK minimizedRMSD -1
REMARK  Name = /home/tchapet/Post-Doc/ARTICLES-DOSSIERS-DES-ARTICLES-EN-REDACTION/NOUVELS-AXES-DE-RECHERCHE-A-REGARDER-URGEMMENT/ARTICLES-EN-REDACTIONS/ARTICLE_MVOTO/Paper2_JCIM/docking_rerun/ligands/23424.pdb
REMARK  12 active torsions:
REMARK  status: ('A' for Active; 'I' for Inactive)
REMARK    1  A    between atoms: N1_2  and  C1_3
REMARK    2  A    between atoms: C4_6  and  N2_9
REMARK    3  A    between atoms: N2_9  and  C7_10
REMARK    4  A    between atoms: N2_9  and  C10_17
REMARK    5  A    between atoms: C7_10  and  C8_11
REMARK    6  A    between atoms: C8_11  and  O2_12
REMARK    7  A    between atoms: O2_12  and  S1_13
REMARK    8  A    between atoms: S1_13  and  C9_16
REMARK    9  A    between atoms: C10_17  and  C11_18
REMARK   10  A    between atoms: C11_18  and  O5_19
REMARK   11  A    between atoms: O5_19  and  S2_20
REMARK   12  A    between atoms: S2_20  and  C12_23
REMARK                            x       y       z     vdW  Elec       q    Type
REMARK                         _______ _______ _______ _____ _____    ______ ____
ROOT
ATOM      1  N2  UNL     1      15.004  -5.070   3.984  0.00  0.00    -0.325 N 
ENDROOT
BRANCH   1   5
ATOM      2  C1  UNL     1      15.092  -3.930   8.080  0.00  0.00    +0.108 A 
ATOM      3  C2  UNL     1      13.960  -3.670   7.300  0.00  0.00    +0.033 A 
ATOM      4  C3  UNL     1      13.928  -4.050   5.955  0.00  0.00    +0.025 A 
ATOM      5  C4  UNL     1      15.031  -4.695   5.373  0.00  0.00    +0.030 A 
ATOM      6  C5  UNL     1      16.166  -4.954   6.156  0.00  0.00    +0.025 A 
ATOM      7  C6  UNL     1      16.197  -4.576   7.501  0.00  0.00    +0.033 A 
BRANCH   2   9
ATOM      8  O1  UNL     1      14.043  -3.413  10.111  0.00  0.00    -0.143 OA
ATOM      9  N1  UNL     1      15.098  -3.531   9.454  0.00  0.00    -0.031 NA
ENDBRANCH   2   9
ENDBRANCH   1   5
BRANCH   1  10
ATOM     10  C7  UNL     1      14.367  -4.182   3.001  0.00  0.00    +0.135 C 
BRANCH  10  11
ATOM     11  C8  UNL     1      15.169  -2.890   2.853  0.00  0.00    +0.212 C 
BRANCH  11  12
ATOM     12  O2  UNL     1      14.313  -1.793   3.064  0.00  0.00    -0.237 OA
BRANCH  12  13
ATOM     13  S1  UNL     1      14.105  -0.970   1.595  0.00  0.00    +0.079 S 
ATOM     14  O3  UNL     1      14.722  -1.793   0.500  0.00  0.00    -0.147 OA
ATOM     15  O4  UNL     1      14.795   0.366   1.640  0.00  0.00    -0.147 OA
ATOM     16  C9  UNL     1      12.377  -0.743   1.221  0.00  0.00    +0.228 C 
ENDBRANCH  12  13
ENDBRANCH  11  12
ENDBRANCH  10  11
ENDBRANCH   1  10
BRANCH   1  17
ATOM     17  C10 UNL     1      15.625  -6.333   3.553  0.00  0.00    +0.135 C 
BRANCH  17  18
ATOM     18  C11 UNL     1      15.338  -6.598   2.075  0.00  0.00    +0.212 C 
BRANCH  18  19
ATOM     19  O5  UNL     1      16.523  -7.002   1.431  0.00  0.00    -0.237 OA
BRANCH  19  20
ATOM     20  S2  UNL     1      17.064  -5.749   0.426  0.00  0.00    +0.079 S 
ATOM     21  O6  UNL     1      15.867  -4.983  -0.063  0.00  0.00    -0.147 OA
ATOM     22  O7  UNL     1      17.790  -6.318  -0.760  0.00  0.00    -0.147 OA
ATOM     23  C12 UNL     1      18.131  -4.624   1.305  0.00  0.00    +0.228 C 
ENDBRANCH  19  20
ENDBRANCH  18  19
ENDBRANCH  17  18
ENDBRANCH   1  17
TORSDOF 10
ENDMDL
MODEL 5
REMARK minimizedAffinity -4.87193632
REMARK minimizedRMSD -1
REMARK  Name = /home/tchapet/Post-Doc/ARTICLES-DOSSIERS-DES-ARTICLES-EN-REDACTION/NOUVELS-AXES-DE-RECHERCHE-A-REGARDER-URGEMMENT/ARTICLES-EN-REDACTIONS/ARTICLE_MVOTO/Paper2_JCIM/docking_rerun/ligands/23424.pdb
REMARK  12 active torsions:
REMARK  status: ('A' for Active; 'I' for Inactive)
REMARK    1  A    between atoms: N1_2  and  C1_3
REMARK    2  A    between atoms: C4_6  and  N2_9
REMARK    3  A    between atoms: N2_9  and  C7_10
REMARK    4  A    between atoms: N2_9  and  C10_17
REMARK    5  A    between atoms: C7_10  and  C8_11
REMARK    6  A    between atoms: C8_11  and  O2_12
REMARK    7  A    between atoms: O2_12  and  S1_13
REMARK    8  A    between atoms: S1_13  and  C9_16
REMARK    9  A    between atoms: C10_17  and  C11_18
REMARK   10  A    between atoms: C11_18  and  O5_19
REMARK   11  A    between atoms: O5_19  and  S2_20
REMARK   12  A    between atoms: S2_20  and  C12_23
REMARK                            x       y       z     vdW  Elec       q    Type
REMARK                         _______ _______ _______ _____ _____    ______ ____
ROOT
ATOM      1  N2  UNL     1      11.913 -13.828  -0.826  0.00  0.00    -0.325 N 
ENDROOT
BRANCH   1   5
ATOM      2  C1  UNL     1      15.230 -12.122  -2.869  0.00  0.00    +0.108 A 
ATOM      3  C2  UNL     1      15.120 -12.002  -1.478  0.00  0.00    +0.033 A 
ATOM      4  C3  UNL     1      14.033 -12.568  -0.805  0.00  0.00    +0.025 A 
ATOM      5  C4  UNL     1      13.041 -13.261  -1.516  0.00  0.00    +0.030 A 
ATOM      6  C5  UNL     1      13.151 -13.379  -2.910  0.00  0.00    +0.025 A 
ATOM      7  C6  UNL     1      14.239 -12.815  -3.583  0.00  0.00    +0.033 A 
BRANCH   2   9
ATOM      8  O1  UNL     1      16.659 -11.836  -4.704  0.00  0.00    -0.143 OA
ATOM      9  N1  UNL     1      16.352 -11.533  -3.532  0.00  0.00    -0.031 NA
ENDBRANCH   2   9
ENDBRANCH   1   5
BRANCH   1  10
ATOM     10  C7  UNL     1      10.557 -13.345  -1.124  0.00  0.00    +0.135 C 
BRANCH  10  11
ATOM     11  C8  UNL     1       9.542 -14.474  -0.961  0.00  0.00    +0.212 C 
BRANCH  11  12
ATOM     12  O2  UNL     1       8.596 -14.103   0.014  0.00  0.00    -0.237 OA
BRANCH  12  13
ATOM     13  S1  UNL     1       7.250 -13.420  -0.761  0.00  0.00    +0.079 S 
ATOM     14  O3  UNL     1       7.424 -11.928  -0.785  0.00  0.00    -0.147 OA
ATOM     15  O4  UNL     1       5.990 -13.744  -0.006  0.00  0.00    -0.147 OA
ATOM     16  C9  UNL     1       7.111 -13.997  -2.441  0.00  0.00    +0.228 C 
ENDBRANCH  12  13
ENDBRANCH  11  12
ENDBRANCH  10  11
ENDBRANCH   1  10
BRANCH   1  17
ATOM     17  C10 UNL     1      12.120 -14.896   0.165  0.00  0.00    +0.135 C 
BRANCH  17  18
ATOM     18  C11 UNL     1      12.789 -16.109  -0.481  0.00  0.00    +0.212 C 
BRANCH  18  19
ATOM     19  O5  UNL     1      11.859 -17.162  -0.579  0.00  0.00    -0.237 OA
BRANCH  19  20
ATOM     20  S2  UNL     1      12.683 -18.640  -0.488  0.00  0.00    +0.079 S 
ATOM     21  O6  UNL     1      13.996 -18.410   0.207  0.00  0.00    -0.147 OA
ATOM     22  O7  UNL     1      12.954 -19.164  -1.870  0.00  0.00    -0.147 OA
ATOM     23  C12 UNL     1      11.758 -19.845   0.443  0.00  0.00    +0.228 C 
ENDBRANCH  19  20
ENDBRANCH  18  19
ENDBRANCH  17  18
ENDBRANCH   1  17
TORSDOF 10
ENDMDL
MODEL 6
REMARK minimizedAffinity -4.8578887
REMARK minimizedRMSD -1
REMARK  Name = /home/tchapet/Post-Doc/ARTICLES-DOSSIERS-DES-ARTICLES-EN-REDACTION/NOUVELS-AXES-DE-RECHERCHE-A-REGARDER-URGEMMENT/ARTICLES-EN-REDACTIONS/ARTICLE_MVOTO/Paper2_JCIM/docking_rerun/ligands/23424.pdb
REMARK  12 active torsions:
REMARK  status: ('A' for Active; 'I' for Inactive)
REMARK    1  A    between atoms: N1_2  and  C1_3
REMARK    2  A    between atoms: C4_6  and  N2_9
REMARK    3  A    between atoms: N2_9  and  C7_10
REMARK    4  A    between atoms: N2_9  and  C10_17
REMARK    5  A    between atoms: C7_10  and  C8_11
REMARK    6  A    between atoms: C8_11  and  O2_12
REMARK    7  A    between atoms: O2_12  and  S1_13
REMARK    8  A    between atoms: S1_13  and  C9_16
REMARK    9  A    between atoms: C10_17  and  C11_18
REMARK   10  A    between atoms: C11_18  and  O5_19
REMARK   11  A    between atoms: O5_19  and  S2_20
REMARK   12  A    between atoms: S2_20  and  C12_23
REMARK                            x       y       z     vdW  Elec       q    Type
REMARK                         _______ _______ _______ _____ _____    ______ ____
ROOT
ATOM      1  N2  UNL     1      -1.376 -14.443  14.136  0.00  0.00    -0.325 N 
ENDROOT
BRANCH   1   5
ATOM      2  C1  UNL     1      -1.239 -11.167  16.845  0.00  0.00    +0.108 A 
ATOM      3  C2  UNL     1      -0.055 -11.713  16.338  0.00  0.00    +0.033 A 
ATOM      4  C3  UNL     1      -0.098 -12.786  15.442  0.00  0.00    +0.025 A 
ATOM      5  C4  UNL     1      -1.331 -13.327  15.044  0.00  0.00    +0.030 A 
ATOM      6  C5  UNL     1      -2.518 -12.780  15.554  0.00  0.00    +0.025 A 
ATOM      7  C6  UNL     1      -2.474 -11.706  16.447  0.00  0.00    +0.033 A 
BRANCH   2   9
ATOM      8  O1  UNL     1      -0.112  -9.790  18.370  0.00  0.00    -0.143 OA
ATOM      9  N1  UNL     1      -1.165 -10.070  17.760  0.00  0.00    -0.031 NA
ENDBRANCH   2   9
ENDBRANCH   1   5
BRANCH   1  10
ATOM     10  C7  UNL     1      -0.123 -15.028  13.638  0.00  0.00    +0.135 C 
BRANCH  10  11
ATOM     11  C8  UNL     1       0.207 -16.309  14.402  0.00  0.00    +0.212 C 
BRANCH  11  12
ATOM     12  O2  UNL     1       1.555 -16.643  14.177  0.00  0.00    -0.237 OA
BRANCH  12  13
ATOM     13  S1  UNL     1       1.847 -18.193  14.800  0.00  0.00    +0.079 S 
ATOM     14  O3  UNL     1       2.571 -18.995  13.756  0.00  0.00    -0.147 OA
ATOM     15  O4  UNL     1       0.549 -18.882  15.121  0.00  0.00    -0.147 OA
ATOM     16  C9  UNL     1       2.868 -18.121  16.260  0.00  0.00    +0.228 C 
ENDBRANCH  12  13
ENDBRANCH  11  12
ENDBRANCH  10  11
ENDBRANCH   1  10
BRANCH   1  17
ATOM     17  C10 UNL     1      -2.673 -14.999  13.720  0.00  0.00    +0.135 C 
BRANCH  17  18
ATOM     18  C11 UNL     1      -2.823 -14.942  12.200  0.00  0.00    +0.212 C 
BRANCH  18  19
ATOM     19  O5  UNL     1      -4.174 -15.137  11.853  0.00  0.00    -0.237 OA
BRANCH  19  20
ATOM     20  S2  UNL     1      -4.553 -14.153  10.526  0.00  0.00    +0.079 S 
ATOM     21  O6  UNL     1      -3.774 -12.874  10.646  0.00  0.00    -0.147 OA
ATOM     22  O7  UNL     1      -6.020 -13.827  10.530  0.00  0.00    -0.147 OA
ATOM     23  C12 UNL     1      -4.114 -14.938   8.988  0.00  0.00    +0.228 C 
ENDBRANCH  19  20
ENDBRANCH  18  19
ENDBRANCH  17  18
ENDBRANCH   1  17
TORSDOF 10
ENDMDL
MODEL 7
REMARK minimizedAffinity -4.81752729
REMARK minimizedRMSD -1
REMARK  Name = /home/tchapet/Post-Doc/ARTICLES-DOSSIERS-DES-ARTICLES-EN-REDACTION/NOUVELS-AXES-DE-RECHERCHE-A-REGARDER-URGEMMENT/ARTICLES-EN-REDACTIONS/ARTICLE_MVOTO/Paper2_JCIM/docking_rerun/ligands/23424.pdb
REMARK  12 active torsions:
REMARK  status: ('A' for Active; 'I' for Inactive)
REMARK    1  A    between atoms: N1_2  and  C1_3
REMARK    2  A    between atoms: C4_6  and  N2_9
REMARK    3  A    between atoms: N2_9  and  C7_10
REMARK    4  A    between atoms: N2_9  and  C10_17
REMARK    5  A    between atoms: C7_10  and  C8_11
REMARK    6  A    between atoms: C8_11  and  O2_12
REMARK    7  A    between atoms: O2_12  and  S1_13
REMARK    8  A    between atoms: S1_13  and  C9_16
REMARK    9  A    between atoms: C10_17  and  C11_18
REMARK   10  A    between atoms: C11_18  and  O5_19
REMARK   11  A    between atoms: O5_19  and  S2_20
REMARK   12  A    between atoms: S2_20  and  C12_23
REMARK                            x       y       z     vdW  Elec       q    Type
REMARK                         _______ _______ _______ _____ _____    ______ ____
ROOT
ATOM      1  N2  UNL     1      -1.348 -14.482  14.105  0.00  0.00    -0.325 N 
ENDROOT
BRANCH   1   5
ATOM      2  C1  UNL     1      -1.221 -11.194  16.799  0.00  0.00    +0.108 A 
ATOM      3  C2  UNL     1      -2.450 -11.695  16.355  0.00  0.00    +0.033 A 
ATOM      4  C3  UNL     1      -2.493 -12.780  15.474  0.00  0.00    +0.025 A 
ATOM      5  C4  UNL     1      -1.305 -13.377  15.025  0.00  0.00    +0.030 A 
ATOM      6  C5  UNL     1      -0.073 -12.872  15.470  0.00  0.00    +0.025 A 
ATOM      7  C6  UNL     1      -0.030 -11.790  16.352  0.00  0.00    +0.033 A 
BRANCH   2   9
ATOM      8  O1  UNL     1      -0.188  -9.779  18.356  0.00  0.00    -0.143 OA
ATOM      9  N1  UNL     1      -1.206 -10.082  17.700  0.00  0.00    -0.031 NA
ENDBRANCH   2   9
ENDBRANCH   1   5
BRANCH   1  10
ATOM     10  C7  UNL     1      -2.646 -15.013  13.665  0.00  0.00    +0.135 C 
BRANCH  10  11
ATOM     11  C8  UNL     1      -2.857 -14.738  12.177  0.00  0.00    +0.212 C 
BRANCH  11  12
ATOM     12  O2  UNL     1      -4.185 -15.057  11.835  0.00  0.00    -0.237 OA
BRANCH  12  13
ATOM     13  S1  UNL     1      -4.644 -14.124  10.496  0.00  0.00    +0.079 S 
ATOM     14  O3  UNL     1      -3.937 -12.801  10.574  0.00  0.00    -0.147 OA
ATOM     15  O4  UNL     1      -6.128 -13.878  10.512  0.00  0.00    -0.147 OA
ATOM     16  C9  UNL     1      -4.182 -14.918   8.968  0.00  0.00    +0.228 C 
ENDBRANCH  12  13
ENDBRANCH  11  12
ENDBRANCH  10  11
ENDBRANCH   1  10
BRANCH   1  17
ATOM     17  C10 UNL     1      -0.096 -15.067  13.600  0.00  0.00    +0.135 C 
BRANCH  17  18
ATOM     18  C11 UNL     1       0.019 -16.534  14.013  0.00  0.00    +0.212 C 
BRANCH  18  19
ATOM     19  O5  UNL     1       0.532 -16.615  15.322  0.00  0.00    -0.237 OA
BRANCH  19  20
ATOM     20  S2  UNL     1      -0.628 -17.335  16.327  0.00  0.00    +0.079 S 
ATOM     21  O6  UNL     1       0.039 -18.424  17.118  0.00  0.00    -0.147 OA
ATOM     22  O7  UNL     1      -1.722 -17.944  15.495  0.00  0.00    -0.147 OA
ATOM     23  C12 UNL     1      -1.323 -16.155  17.467  0.00  0.00    +0.228 C 
ENDBRANCH  19  20
ENDBRANCH  18  19
ENDBRANCH  17  18
ENDBRANCH   1  17
TORSDOF 10
ENDMDL
MODEL 8
REMARK minimizedAffinity -4.79095411
REMARK minimizedRMSD -1
REMARK  Name = /home/tchapet/Post-Doc/ARTICLES-DOSSIERS-DES-ARTICLES-EN-REDACTION/NOUVELS-AXES-DE-RECHERCHE-A-REGARDER-URGEMMENT/ARTICLES-EN-REDACTIONS/ARTICLE_MVOTO/Paper2_JCIM/docking_rerun/ligands/23424.pdb
REMARK  12 active torsions:
REMARK  status: ('A' for Active; 'I' for Inactive)
REMARK    1  A    between atoms: N1_2  and  C1_3
REMARK    2  A    between atoms: C4_6  and  N2_9
REMARK    3  A    between atoms: N2_9  and  C7_10
REMARK    4  A    between atoms: N2_9  and  C10_17
REMARK    5  A    between atoms: C7_10  and  C8_11
REMARK    6  A    between atoms: C8_11  and  O2_12
REMARK    7  A    between atoms: O2_12  and  S1_13
REMARK    8  A    between atoms: S1_13  and  C9_16
REMARK    9  A    between atoms: C10_17  and  C11_18
REMARK   10  A    between atoms: C11_18  and  O5_19
REMARK   11  A    between atoms: O5_19  and  S2_20
REMARK   12  A    between atoms: S2_20  and  C12_23
REMARK                            x       y       z     vdW  Elec       q    Type
REMARK                         _______ _______ _______ _____ _____    ______ ____
ROOT
ATOM      1  N2  UNL     1      15.640  -5.440   3.664  0.00  0.00    -0.325 N 
ENDROOT
BRANCH   1   5
ATOM      2  C1  UNL     1      15.439  -4.322   7.762  0.00  0.00    +0.108 A 
ATOM      3  C2  UNL     1      14.343  -4.109   6.918  0.00  0.00    +0.033 A 
ATOM      4  C3  UNL     1      14.405  -4.482   5.572  0.00  0.00    +0.025 A 
ATOM      5  C4  UNL     1      15.569  -5.072   5.053  0.00  0.00    +0.030 A 
ATOM      6  C5  UNL     1      16.668  -5.282   5.900  0.00  0.00    +0.025 A 
ATOM      7  C6  UNL     1      16.604  -4.912   7.246  0.00  0.00    +0.033 A 
BRANCH   2   9
ATOM      8  O1  UNL     1      14.346  -4.196   9.832  0.00  0.00    -0.143 OA
ATOM      9  N1  UNL     1      15.347  -3.930   9.135  0.00  0.00    -0.031 NA
ENDBRANCH   2   9
ENDBRANCH   1   5
BRANCH   1  10
ATOM     10  C7  UNL     1      16.383  -6.644   3.266  0.00  0.00    +0.135 C 
BRANCH  10  11
ATOM     11  C8  UNL     1      16.837  -6.533   1.812  0.00  0.00    +0.212 C 
BRANCH  11  12
ATOM     12  O2  UNL     1      15.972  -7.293   1.002  0.00  0.00    -0.237 OA
BRANCH  12  13
ATOM     13  S1  UNL     1      16.112  -6.758  -0.601  0.00  0.00    +0.079 S 
ATOM     14  O3  UNL     1      15.978  -7.946  -1.510  0.00  0.00    -0.147 OA
ATOM     15  O4  UNL     1      17.459  -6.128  -0.828  0.00  0.00    -0.147 OA
ATOM     16  C9  UNL     1      14.826  -5.592  -1.007  0.00  0.00    +0.228 C 
ENDBRANCH  12  13
ENDBRANCH  11  12
ENDBRANCH  10  11
ENDBRANCH   1  10
BRANCH   1  17
ATOM     17  C10 UNL     1      14.959  -4.617   2.651  0.00  0.00    +0.135 C 
BRANCH  17  18
ATOM     18  C11 UNL     1      15.683  -3.283   2.464  0.00  0.00    +0.212 C 
BRANCH  18  19
ATOM     19  O5  UNL     1      15.568  -2.870   1.123  0.00  0.00    -0.237 OA
BRANCH  19  20
ATOM     20  S2  UNL     1      17.111  -2.515   0.519  0.00  0.00    +0.079 S 
ATOM     21  O6  UNL     1      17.116  -2.785  -0.959  0.00  0.00    -0.147 OA
ATOM     22  O7  UNL     1      18.136  -3.399   1.174  0.00  0.00    -0.147 OA
ATOM     23  C12 UNL     1      17.534  -0.804   0.781  0.00  0.00    +0.228 C 
ENDBRANCH  19  20
ENDBRANCH  18  19
ENDBRANCH  17  18
ENDBRANCH   1  17
TORSDOF 10
ENDMDL
MODEL 9
REMARK minimizedAffinity -4.71737003
REMARK minimizedRMSD -1
REMARK  Name = /home/tchapet/Post-Doc/ARTICLES-DOSSIERS-DES-ARTICLES-EN-REDACTION/NOUVELS-AXES-DE-RECHERCHE-A-REGARDER-URGEMMENT/ARTICLES-EN-REDACTIONS/ARTICLE_MVOTO/Paper2_JCIM/docking_rerun/ligands/23424.pdb
REMARK  12 active torsions:
REMARK  status: ('A' for Active; 'I' for Inactive)
REMARK    1  A    between atoms: N1_2  and  C1_3
REMARK    2  A    between atoms: C4_6  and  N2_9
REMARK    3  A    between atoms: N2_9  and  C7_10
REMARK    4  A    between atoms: N2_9  and  C10_17
REMARK    5  A    between atoms: C7_10  and  C8_11
REMARK    6  A    between atoms: C8_11  and  O2_12
REMARK    7  A    between atoms: O2_12  and  S1_13
REMARK    8  A    between atoms: S1_13  and  C9_16
REMARK    9  A    between atoms: C10_17  and  C11_18
REMARK   10  A    between atoms: C11_18  and  O5_19
REMARK   11  A    between atoms: O5_19  and  S2_20
REMARK   12  A    between atoms: S2_20  and  C12_23
REMARK                            x       y       z     vdW  Elec       q    Type
REMARK                         _______ _______ _______ _____ _____    ______ ____
ROOT
ATOM      1  N2  UNL     1      13.561  -1.410   5.325  0.00  0.00    -0.325 N 
ENDROOT
BRANCH   1   5
ATOM      2  C1  UNL     1      13.485  -0.536   9.487  0.00  0.00    +0.108 A 
ATOM      3  C2  UNL     1      13.688  -1.849   9.045  0.00  0.00    +0.033 A 
ATOM      4  C3  UNL     1      13.720  -2.136   7.677  0.00  0.00    +0.025 A 
ATOM      5  C4  UNL     1      13.546  -1.112   6.733  0.00  0.00    +0.030 A 
ATOM      6  C5  UNL     1      13.341   0.204   7.177  0.00  0.00    +0.025 A 
ATOM      7  C6  UNL     1      13.312   0.491   8.544  0.00  0.00    +0.033 A 
BRANCH   2   9
ATOM      8  O1  UNL     1      14.153   0.630  11.407  0.00  0.00    -0.143 OA
ATOM      9  N1  UNL     1      13.458  -0.271  10.892  0.00  0.00    -0.031 NA
ENDBRANCH   2   9
ENDBRANCH   1   5
BRANCH   1  10
ATOM     10  C7  UNL     1      13.748  -0.324   4.352  0.00  0.00    +0.135 C 
BRANCH  10  11
ATOM     11  C8  UNL     1      13.019  -0.645   3.049  0.00  0.00    +0.212 C 
BRANCH  11  12
ATOM     12  O2  UNL     1      11.763  -0.010   3.058  0.00  0.00    -0.237 OA
BRANCH  12  13
ATOM     13  S1  UNL     1      11.143   0.000   1.479  0.00  0.00    +0.079 S 
ATOM     14  O3  UNL     1      12.035  -0.845   0.615  0.00  0.00    -0.147 OA
ATOM     15  O4  UNL     1      11.128   1.401   0.930  0.00  0.00    -0.147 OA
ATOM     16  C9  UNL     1       9.498  -0.685   1.428  0.00  0.00    +0.228 C 
ENDBRANCH  12  13
ENDBRANCH  11  12
ENDBRANCH  10  11
ENDBRANCH   1  10
BRANCH   1  17
ATOM     17  C10 UNL     1      13.402  -2.799   4.867  0.00  0.00    +0.135 C 
BRANCH  17  18
ATOM     18  C11 UNL     1      14.737  -3.364   4.383  0.00  0.00    +0.212 C 
BRANCH  18  19
ATOM     19  O5  UNL     1      14.582  -3.889   3.086  0.00  0.00    -0.237 OA
BRANCH  19  20
ATOM     20  S2  UNL     1      15.309  -5.419   3.017  0.00  0.00    +0.079 S 
ATOM     21  O6  UNL     1      14.472  -6.303   2.135  0.00  0.00    -0.147 OA
ATOM     22  O7  UNL     1      15.366  -6.024   4.392  0.00  0.00    -0.147 OA
ATOM     23  C12 UNL     1      16.950  -5.330   2.329  0.00  0.00    +0.228 C 
ENDBRANCH  19  20
ENDBRANCH  18  19
ENDBRANCH  17  18
ENDBRANCH   1  17
TORSDOF 10
ENDMDL
