MODEL 1
REMARK minimizedAffinity -5.90023804
REMARK minimizedRMSD -1
REMARK  Name = /home/tchapet/Post-Doc/ARTICLES-DOSSIERS-DES-ARTICLES-EN-REDACTION/NOUVELS-AXES-DE-RECHERCHE-A-REGARDER-URGEMMENT/ARTICLES-EN-REDACTIONS/ARTICLE_MVOTO/Paper2_Sensors_ActuatorsB/docking_rerun/ligands/4550.pdb
REMARK  4 active torsions:
REMARK  status: ('A' for Active; 'I' for Inactive)
REMARK    1  A    between atoms: N1_2  and  C1_3
REMARK    2  A    between atoms: C4_6  and  N2_7
REMARK    3  A    between atoms: N2_7  and  O2_8
REMARK    4  A    between atoms: N2_7  and  O3_9
REMARK                            x       y       z     vdW  Elec       q    Type
REMARK                         _______ _______ _______ _____ _____    ______ ____
ROOT
ATOM      1  C1  UNL     1     -23.254 -29.907   4.570  0.00  0.00    +0.180 C 
ATOM      2  C2  UNL     1     -22.185 -30.019   3.802  0.00  0.00    +0.034 A 
ATOM      3  C3  UNL     1     -21.219 -29.066   3.507  0.00  0.00    +0.043 A 
ATOM      4  C4  UNL     1     -20.157 -29.414   2.648  0.00  0.00    +0.099 A 
ATOM      5  C5  UNL     1     -20.065 -30.747   2.132  0.00  0.00    -0.014 A 
ATOM      6  C6  UNL     1     -21.092 -31.694   2.428  0.00  0.00    -0.018 A 
ATOM      7  C7  UNL     1     -22.132 -31.301   3.279  0.00  0.00    +0.070 A 
ATOM      8  N3  UNL     1     -23.114 -32.060   3.665  0.00  0.00    -0.174 NA
ATOM      9  C8  UNL     1     -23.884 -31.211   4.510  0.00  0.00    +0.290 C 
ATOM     10  O4  UNL     1     -24.939 -31.563   5.098  0.00  0.00    -0.266 OA
ATOM     11  C9  UNL     1     -21.028 -33.129   1.948  0.00  0.00    +0.037 C 
ATOM     12  C10 UNL     1     -20.042 -33.327   0.798  0.00  0.00    +0.005 C 
ATOM     13  C11 UNL     1     -18.714 -32.655   1.125  0.00  0.00    +0.005 C 
ATOM     14  C12 UNL     1     -18.901 -31.142   1.241  0.00  0.00    +0.038 C 
ENDROOT
BRANCH   1  16
ATOM     15  O1  UNL     1     -23.876 -28.803   6.524  0.00  0.00    -0.143 OA
ATOM     16  N1  UNL     1     -23.671 -28.750   5.295  0.00  0.00    -0.025 NA
ENDBRANCH   1  16
BRANCH   4  17
ATOM     17  N2  UNL     1     -19.186 -28.401   2.317  0.00  0.00    -0.128 N 
BRANCH  17  18
ATOM     18  O2  UNL     1     -19.304 -27.664   1.185  0.00  0.00    -0.262 OA
ATOM     19  H2  UNL     1     -19.860 -26.886   1.445  0.00  0.00    +0.247 HD
ENDBRANCH  17  18
BRANCH  17  20
ATOM     20  O3  UNL     1     -18.164 -28.134   3.166  0.00  0.00    -0.262 OA
ATOM     21  H3  UNL     1     -18.495 -27.398   3.743  0.00  0.00    +0.247 HD
ENDBRANCH  17  20
ENDBRANCH   4  17
TORSDOF 4
ENDMDL
MODEL 2
REMARK minimizedAffinity -5.88504791
REMARK minimizedRMSD -1
REMARK  Name = /home/tchapet/Post-Doc/ARTICLES-DOSSIERS-DES-ARTICLES-EN-REDACTION/NOUVELS-AXES-DE-RECHERCHE-A-REGARDER-URGEMMENT/ARTICLES-EN-REDACTIONS/ARTICLE_MVOTO/Paper2_Sensors_ActuatorsB/docking_rerun/ligands/4550.pdb
REMARK  4 active torsions:
REMARK  status: ('A' for Active; 'I' for Inactive)
REMARK    1  A    between atoms: N1_2  and  C1_3
REMARK    2  A    between atoms: C4_6  and  N2_7
REMARK    3  A    between atoms: N2_7  and  O2_8
REMARK    4  A    between atoms: N2_7  and  O3_9
REMARK                            x       y       z     vdW  Elec       q    Type
REMARK                         _______ _______ _______ _____ _____    ______ ____
ROOT
ATOM      1  C1  UNL     1     -18.666 -31.006   1.745  0.00  0.00    +0.180 C 
ATOM      2  C2  UNL     1     -19.876 -30.697   2.175  0.00  0.00    +0.034 A 
ATOM      3  C3  UNL     1     -20.298 -29.561   2.853  0.00  0.00    +0.043 A 
ATOM      4  C4  UNL     1     -21.655 -29.448   3.218  0.00  0.00    +0.099 A 
ATOM      5  C5  UNL     1     -22.580 -30.478   2.849  0.00  0.00    -0.014 A 
ATOM      6  C6  UNL     1     -22.109 -31.648   2.181  0.00  0.00    -0.018 A 
ATOM      7  C7  UNL     1     -20.751 -31.720   1.845  0.00  0.00    +0.070 A 
ATOM      8  N3  UNL     1     -20.186 -32.701   1.208  0.00  0.00    -0.174 NA
ATOM      9  C8  UNL     1     -18.823 -32.299   1.111  0.00  0.00    +0.290 C 
ATOM     10  O4  UNL     1     -17.920 -32.978   0.556  0.00  0.00    -0.266 OA
ATOM     11  C9  UNL     1     -23.044 -32.749   1.727  0.00  0.00    +0.037 C 
ATOM     12  C10 UNL     1     -24.403 -32.699   2.422  0.00  0.00    +0.005 C 
ATOM     13  C11 UNL     1     -24.954 -31.278   2.394  0.00  0.00    +0.005 C 
ATOM     14  C12 UNL     1     -24.051 -30.344   3.202  0.00  0.00    +0.038 C 
ENDROOT
BRANCH   1  16
ATOM     15  O1  UNL     1     -16.643 -30.475   2.769  0.00  0.00    -0.143 OA
ATOM     16  N1  UNL     1     -17.482 -30.219   1.882  0.00  0.00    -0.025 NA
ENDBRANCH   1  16
BRANCH   4  17
ATOM     17  N2  UNL     1     -22.069 -28.284   3.960  0.00  0.00    -0.128 N 
BRANCH  17  18
ATOM     18  O2  UNL     1     -22.309 -27.105   3.334  0.00  0.00    -0.262 OA
ATOM     19  H2  UNL     1     -23.266 -27.144   3.078  0.00  0.00    +0.247 HD
ENDBRANCH  17  18
BRANCH  17  20
ATOM     20  O3  UNL     1     -22.278 -28.368   5.297  0.00  0.00    -0.262 OA
ATOM     21  H3  UNL     1     -23.243 -28.573   5.393  0.00  0.00    +0.247 HD
ENDBRANCH  17  20
ENDBRANCH   4  17
TORSDOF 4
ENDMDL
MODEL 3
REMARK minimizedAffinity -5.84219885
REMARK minimizedRMSD -1
REMARK  Name = /home/tchapet/Post-Doc/ARTICLES-DOSSIERS-DES-ARTICLES-EN-REDACTION/NOUVELS-AXES-DE-RECHERCHE-A-REGARDER-URGEMMENT/ARTICLES-EN-REDACTIONS/ARTICLE_MVOTO/Paper2_Sensors_ActuatorsB/docking_rerun/ligands/4550.pdb
REMARK  4 active torsions:
REMARK  status: ('A' for Active; 'I' for Inactive)
REMARK    1  A    between atoms: N1_2  and  C1_3
REMARK    2  A    between atoms: C4_6  and  N2_7
REMARK    3  A    between atoms: N2_7  and  O2_8
REMARK    4  A    between atoms: N2_7  and  O3_9
REMARK                            x       y       z     vdW  Elec       q    Type
REMARK                         _______ _______ _______ _____ _____    ______ ____
ROOT
ATOM      1  C1  UNL     1     -23.113 -32.706   1.958  0.00  0.00    +0.180 C 
ATOM      2  C2  UNL     1     -22.358 -31.685   2.320  0.00  0.00    +0.034 A 
ATOM      3  C3  UNL     1     -22.714 -30.539   3.020  0.00  0.00    +0.043 A 
ATOM      4  C4  UNL     1     -21.728 -29.571   3.293  0.00  0.00    +0.099 A 
ATOM      5  C5  UNL     1     -20.373 -29.800   2.888  0.00  0.00    -0.014 A 
ATOM      6  C6  UNL     1     -20.044 -30.972   2.142  0.00  0.00    -0.018 A 
ATOM      7  C7  UNL     1     -21.059 -31.903   1.887  0.00  0.00    +0.070 A 
ATOM      8  N3  UNL     1     -20.905 -33.028   1.255  0.00  0.00    -0.174 NA
ATOM      9  C8  UNL     1     -22.209 -33.601   1.265  0.00  0.00    +0.290 C 
ATOM     10  O4  UNL     1     -22.501 -34.710   0.747  0.00  0.00    -0.266 OA
ATOM     11  C9  UNL     1     -18.624 -31.291   1.724  0.00  0.00    +0.037 C 
ATOM     12  C10 UNL     1     -17.701 -30.075   1.779  0.00  0.00    +0.005 C 
ATOM     13  C11 UNL     1     -17.877 -29.344   3.105  0.00  0.00    +0.005 C 
ATOM     14  C12 UNL     1     -19.295 -28.781   3.215  0.00  0.00    +0.038 C 
ENDROOT
BRANCH   1  16
ATOM     15  O1  UNL     1     -25.326 -32.944   1.273  0.00  0.00    -0.143 OA
ATOM     16  N1  UNL     1     -24.509 -32.871   2.212  0.00  0.00    -0.025 NA
ENDBRANCH   1  16
BRANCH   4  17
ATOM     17  N2  UNL     1     -22.122 -28.368   3.981  0.00  0.00    -0.128 N 
BRANCH  17  18
ATOM     18  O2  UNL     1     -22.428 -27.239   3.296  0.00  0.00    -0.262 OA
ATOM     19  H2  UNL     1     -23.398 -27.313   3.103  0.00  0.00    +0.247 HD
ENDBRANCH  17  18
BRANCH  17  20
ATOM     20  O3  UNL     1     -22.246 -28.366   5.331  0.00  0.00    -0.262 OA
ATOM     21  H3  UNL     1     -23.198 -28.582   5.502  0.00  0.00    +0.247 HD
ENDBRANCH  17  20
ENDBRANCH   4  17
TORSDOF 4
ENDMDL
MODEL 4
REMARK minimizedAffinity -5.57011318
REMARK minimizedRMSD -1
REMARK  Name = /home/tchapet/Post-Doc/ARTICLES-DOSSIERS-DES-ARTICLES-EN-REDACTION/NOUVELS-AXES-DE-RECHERCHE-A-REGARDER-URGEMMENT/ARTICLES-EN-REDACTIONS/ARTICLE_MVOTO/Paper2_Sensors_ActuatorsB/docking_rerun/ligands/4550.pdb
REMARK  4 active torsions:
REMARK  status: ('A' for Active; 'I' for Inactive)
REMARK    1  A    between atoms: N1_2  and  C1_3
REMARK    2  A    between atoms: C4_6  and  N2_7
REMARK    3  A    between atoms: N2_7  and  O2_8
REMARK    4  A    between atoms: N2_7  and  O3_9
REMARK                            x       y       z     vdW  Elec       q    Type
REMARK                         _______ _______ _______ _____ _____    ______ ____
ROOT
ATOM      1  C1  UNL     1     -21.465 -33.922   1.434  0.00  0.00    +0.180 C 
ATOM      2  C2  UNL     1     -21.563 -32.672   1.849  0.00  0.00    +0.034 A 
ATOM      3  C3  UNL     1     -22.647 -32.028   2.431  0.00  0.00    +0.043 A 
ATOM      4  C4  UNL     1     -22.521 -30.672   2.795  0.00  0.00    +0.099 A 
ATOM      5  C5  UNL     1     -21.273 -29.995   2.602  0.00  0.00    -0.014 A 
ATOM      6  C6  UNL     1     -20.188 -30.676   1.972  0.00  0.00    -0.018 A 
ATOM      7  C7  UNL     1     -20.362 -32.021   1.620  0.00  0.00    +0.070 A 
ATOM      8  N3  UNL     1     -19.457 -32.777   1.074  0.00  0.00    -0.174 NA
ATOM      9  C8  UNL     1     -20.113 -34.032   0.924  0.00  0.00    +0.290 C 
ATOM     10  O4  UNL     1     -19.580 -35.057   0.426  0.00  0.00    -0.266 OA
ATOM     11  C9  UNL     1     -18.832 -30.029   1.780  0.00  0.00    +0.037 C 
ATOM     12  C10 UNL     1     -18.877 -28.507   1.907  0.00  0.00    +0.005 C 
ATOM     13  C11 UNL     1     -19.655 -28.108   3.155  0.00  0.00    +0.005 C 
ATOM     14  C12 UNL     1     -21.115 -28.547   3.030  0.00  0.00    +0.038 C 
ENDROOT
BRANCH   1  16
ATOM     15  O1  UNL     1     -23.143 -35.224   0.479  0.00  0.00    -0.143 OA
ATOM     16  N1  UNL     1     -22.480 -34.925   1.492  0.00  0.00    -0.025 NA
ENDBRANCH   1  16
BRANCH   4  17
ATOM     17  N2  UNL     1     -23.668 -30.005   3.357  0.00  0.00    -0.128 N 
BRANCH  17  18
ATOM     18  O2  UNL     1     -24.523 -29.304   2.573  0.00  0.00    -0.262 OA
ATOM     19  H2  UNL     1     -25.196 -29.968   2.274  0.00  0.00    +0.247 HD
ENDBRANCH  17  18
BRANCH  17  20
ATOM     20  O3  UNL     1     -23.939 -30.117   4.682  0.00  0.00    -0.262 OA
ATOM     21  H3  UNL     1     -24.555 -30.890   4.753  0.00  0.00    +0.247 HD
ENDBRANCH  17  20
ENDBRANCH   4  17
TORSDOF 4
ENDMDL
MODEL 5
REMARK minimizedAffinity -5.55737543
REMARK minimizedRMSD -1
REMARK  Name = /home/tchapet/Post-Doc/ARTICLES-DOSSIERS-DES-ARTICLES-EN-REDACTION/NOUVELS-AXES-DE-RECHERCHE-A-REGARDER-URGEMMENT/ARTICLES-EN-REDACTIONS/ARTICLE_MVOTO/Paper2_Sensors_ActuatorsB/docking_rerun/ligands/4550.pdb
REMARK  4 active torsions:
REMARK  status: ('A' for Active; 'I' for Inactive)
REMARK    1  A    between atoms: N1_2  and  C1_3
REMARK    2  A    between atoms: C4_6  and  N2_7
REMARK    3  A    between atoms: N2_7  and  O2_8
REMARK    4  A    between atoms: N2_7  and  O3_9
REMARK                            x       y       z     vdW  Elec       q    Type
REMARK                         _______ _______ _______ _____ _____    ______ ____
ROOT
ATOM      1  C1  UNL     1      14.901  24.061  22.267  0.00  0.00    +0.180 C 
ATOM      2  C2  UNL     1      13.850  24.808  22.556  0.00  0.00    +0.034 A 
ATOM      3  C3  UNL     1      12.501  24.506  22.422  0.00  0.00    +0.043 A 
ATOM      4  C4  UNL     1      11.546  25.471  22.797  0.00  0.00    +0.099 A 
ATOM      5  C5  UNL     1      11.974  26.723  23.348  0.00  0.00    -0.014 A 
ATOM      6  C6  UNL     1      13.369  27.015  23.443  0.00  0.00    -0.018 A 
ATOM      7  C7  UNL     1      14.282  26.028  23.051  0.00  0.00    +0.070 A 
ATOM      8  N3  UNL     1      15.576  26.135  23.112  0.00  0.00    -0.174 NA
ATOM      9  C8  UNL     1      16.041  24.885  22.614  0.00  0.00    +0.290 C 
ATOM     10  O4  UNL     1      17.255  24.572  22.504  0.00  0.00    -0.266 OA
ATOM     11  C9  UNL     1      13.884  28.300  24.056  0.00  0.00    +0.037 C 
ATOM     12  C10 UNL     1      12.815  29.389  24.139  0.00  0.00    +0.005 C 
ATOM     13  C11 UNL     1      11.529  28.817  24.726  0.00  0.00    +0.005 C 
ATOM     14  C12 UNL     1      10.950  27.751  23.794  0.00  0.00    +0.038 C 
ENDROOT
BRANCH   1  16
ATOM     15  O1  UNL     1      15.140  21.753  22.462  0.00  0.00    -0.143 OA
ATOM     16  N1  UNL     1      14.889  22.735  21.736  0.00  0.00    -0.025 NA
ENDBRANCH   1  16
BRANCH   4  17
ATOM     17  N2  UNL     1      10.151  25.161  22.611  0.00  0.00    -0.128 N 
BRANCH  17  18
ATOM     18  O2  UNL     1       9.285  25.182  23.654  0.00  0.00    -0.262 OA
ATOM     19  H2  UNL     1       8.956  26.116  23.692  0.00  0.00    +0.247 HD
ENDBRANCH  17  18
BRANCH  17  20
ATOM     20  O3  UNL     1       9.673  24.893  21.371  0.00  0.00    -0.262 OA
ATOM     21  H3  UNL     1       9.358  25.767  21.024  0.00  0.00    +0.247 HD
ENDBRANCH  17  20
ENDBRANCH   4  17
TORSDOF 4
ENDMDL
MODEL 6
REMARK minimizedAffinity -5.53362846
REMARK minimizedRMSD -1
REMARK  Name = /home/tchapet/Post-Doc/ARTICLES-DOSSIERS-DES-ARTICLES-EN-REDACTION/NOUVELS-AXES-DE-RECHERCHE-A-REGARDER-URGEMMENT/ARTICLES-EN-REDACTIONS/ARTICLE_MVOTO/Paper2_Sensors_ActuatorsB/docking_rerun/ligands/4550.pdb
REMARK  4 active torsions:
REMARK  status: ('A' for Active; 'I' for Inactive)
REMARK    1  A    between atoms: N1_2  and  C1_3
REMARK    2  A    between atoms: C4_6  and  N2_7
REMARK    3  A    between atoms: N2_7  and  O2_8
REMARK    4  A    between atoms: N2_7  and  O3_9
REMARK                            x       y       z     vdW  Elec       q    Type
REMARK                         _______ _______ _______ _____ _____    ______ ____
ROOT
ATOM      1  C1  UNL     1     -19.029 -30.124   2.069  0.00  0.00    +0.180 C 
ATOM      2  C2  UNL     1     -20.244 -30.632   2.161  0.00  0.00    +0.034 A 
ATOM      3  C3  UNL     1     -21.393 -30.058   2.690  0.00  0.00    +0.043 A 
ATOM      4  C4  UNL     1     -22.591 -30.799   2.683  0.00  0.00    +0.099 A 
ATOM      5  C5  UNL     1     -22.619 -32.106   2.096  0.00  0.00    -0.014 A 
ATOM      6  C6  UNL     1     -21.414 -32.680   1.590  0.00  0.00    -0.018 A 
ATOM      7  C7  UNL     1     -20.245 -31.910   1.625  0.00  0.00    +0.070 A 
ATOM      8  N3  UNL     1     -19.085 -32.283   1.171  0.00  0.00    -0.174 NA
ATOM      9  C8  UNL     1     -18.245 -31.163   1.431  0.00  0.00    +0.290 C 
ATOM     10  O4  UNL     1     -17.022 -31.110   1.142  0.00  0.00    -0.266 OA
ATOM     11  C9  UNL     1     -21.387 -34.038   0.919  0.00  0.00    +0.037 C 
ATOM     12  C10 UNL     1     -22.624 -34.879   1.231  0.00  0.00    +0.005 C 
ATOM     13  C11 UNL     1     -23.886 -34.046   1.041  0.00  0.00    +0.005 C 
ATOM     14  C12 UNL     1     -23.916 -32.894   2.047  0.00  0.00    +0.038 C 
ENDROOT
BRANCH   1  16
ATOM     15  O1  UNL     1     -17.803 -28.704   3.450  0.00  0.00    -0.143 OA
ATOM     16  N1  UNL     1     -18.606 -28.831   2.504  0.00  0.00    -0.025 NA
ENDBRANCH   1  16
BRANCH   4  17
ATOM     17  N2  UNL     1     -23.765 -30.207   3.276  0.00  0.00    -0.128 N 
BRANCH  17  18
ATOM     18  O2  UNL     1     -24.549 -29.355   2.572  0.00  0.00    -0.262 OA
ATOM     19  H2  UNL     1     -25.210 -29.936   2.115  0.00  0.00    +0.247 HD
ENDBRANCH  17  18
BRANCH  17  20
ATOM     20  O3  UNL     1     -24.131 -30.540   4.538  0.00  0.00    -0.262 OA
ATOM     21  H3  UNL     1     -24.765 -31.296   4.430  0.00  0.00    +0.247 HD
ENDBRANCH  17  20
ENDBRANCH   4  17
TORSDOF 4
ENDMDL
MODEL 7
REMARK minimizedAffinity -5.4923439
REMARK minimizedRMSD -1
REMARK  Name = /home/tchapet/Post-Doc/ARTICLES-DOSSIERS-DES-ARTICLES-EN-REDACTION/NOUVELS-AXES-DE-RECHERCHE-A-REGARDER-URGEMMENT/ARTICLES-EN-REDACTIONS/ARTICLE_MVOTO/Paper2_Sensors_ActuatorsB/docking_rerun/ligands/4550.pdb
REMARK  4 active torsions:
REMARK  status: ('A' for Active; 'I' for Inactive)
REMARK    1  A    between atoms: N1_2  and  C1_3
REMARK    2  A    between atoms: C4_6  and  N2_7
REMARK    3  A    between atoms: N2_7  and  O2_8
REMARK    4  A    between atoms: N2_7  and  O3_9
REMARK                            x       y       z     vdW  Elec       q    Type
REMARK                         _______ _______ _______ _____ _____    ______ ____
ROOT
ATOM      1  C1  UNL     1     -24.043 -32.125   2.307  0.00  0.00    +0.180 C 
ATOM      2  C2  UNL     1     -22.765 -31.806   2.212  0.00  0.00    +0.034 A 
ATOM      3  C3  UNL     1     -21.699 -32.591   1.792  0.00  0.00    +0.043 A 
ATOM      4  C4  UNL     1     -20.405 -32.032   1.775  0.00  0.00    +0.099 A 
ATOM      5  C5  UNL     1     -20.216 -30.661   2.145  0.00  0.00    -0.014 A 
ATOM      6  C6  UNL     1     -21.328 -29.890   2.603  0.00  0.00    -0.018 A 
ATOM      7  C7  UNL     1     -22.593 -30.490   2.610  0.00  0.00    +0.070 A 
ATOM      8  N3  UNL     1     -23.699 -29.906   2.965  0.00  0.00    -0.174 NA
ATOM      9  C8  UNL     1     -24.685 -30.919   2.792  0.00  0.00    +0.290 C 
ATOM     10  O4  UNL     1     -25.911 -30.764   3.029  0.00  0.00    -0.266 OA
ATOM     11  C9  UNL     1     -21.199 -28.426   2.966  0.00  0.00    +0.037 C 
ATOM     12  C10 UNL     1     -19.753 -28.000   3.217  0.00  0.00    +0.005 C 
ATOM     13  C11 UNL     1     -18.855 -28.509   2.095  0.00  0.00    +0.005 C 
ATOM     14  C12 UNL     1     -18.832 -30.039   2.089  0.00  0.00    +0.038 C 
ENDROOT
BRANCH   1  16
ATOM     15  O1  UNL     1     -25.204 -33.568   0.895  0.00  0.00    -0.143 OA
ATOM     16  N1  UNL     1     -24.638 -33.384   1.991  0.00  0.00    -0.025 NA
ENDBRANCH   1  16
BRANCH   4  17
ATOM     17  N2  UNL     1     -19.303 -32.871   1.379  0.00  0.00    -0.128 N 
BRANCH  17  18
ATOM     18  O2  UNL     1     -18.885 -32.916   0.091  0.00  0.00    -0.262 OA
ATOM     19  H2  UNL     1     -18.213 -32.190   0.017  0.00  0.00    +0.247 HD
ENDBRANCH  17  18
BRANCH  17  20
ATOM     20  O3  UNL     1     -18.629 -33.593   2.309  0.00  0.00    -0.262 OA
ATOM     21  H3  UNL     1     -17.876 -33.012   2.589  0.00  0.00    +0.247 HD
ENDBRANCH  17  20
ENDBRANCH   4  17
TORSDOF 4
ENDMDL
MODEL 8
REMARK minimizedAffinity -5.49154425
REMARK minimizedRMSD -1
REMARK  Name = /home/tchapet/Post-Doc/ARTICLES-DOSSIERS-DES-ARTICLES-EN-REDACTION/NOUVELS-AXES-DE-RECHERCHE-A-REGARDER-URGEMMENT/ARTICLES-EN-REDACTIONS/ARTICLE_MVOTO/Paper2_Sensors_ActuatorsB/docking_rerun/ligands/4550.pdb
REMARK  4 active torsions:
REMARK  status: ('A' for Active; 'I' for Inactive)
REMARK    1  A    between atoms: N1_2  and  C1_3
REMARK    2  A    between atoms: C4_6  and  N2_7
REMARK    3  A    between atoms: N2_7  and  O2_8
REMARK    4  A    between atoms: N2_7  and  O3_9
REMARK                            x       y       z     vdW  Elec       q    Type
REMARK                         _______ _______ _______ _____ _____    ______ ____
ROOT
ATOM      1  C1  UNL     1     -19.959 -28.996   3.017  0.00  0.00    +0.180 C 
ATOM      2  C2  UNL     1     -20.339 -30.168   2.539  0.00  0.00    +0.034 A 
ATOM      3  C3  UNL     1     -19.565 -31.170   1.969  0.00  0.00    +0.043 A 
ATOM      4  C4  UNL     1     -20.196 -32.348   1.523  0.00  0.00    +0.099 A 
ATOM      5  C5  UNL     1     -21.608 -32.513   1.701  0.00  0.00    -0.014 A 
ATOM      6  C6  UNL     1     -22.380 -31.451   2.262  0.00  0.00    -0.018 A 
ATOM      7  C7  UNL     1     -21.711 -30.295   2.684  0.00  0.00    +0.070 A 
ATOM      8  N3  UNL     1     -22.272 -29.264   3.242  0.00  0.00    -0.174 NA
ATOM      9  C8  UNL     1     -21.184 -28.378   3.484  0.00  0.00    +0.290 C 
ATOM     10  O4  UNL     1     -21.296 -27.245   4.019  0.00  0.00    -0.266 OA
ATOM     11  C9  UNL     1     -23.867 -31.581   2.516  0.00  0.00    +0.037 C 
ATOM     12  C10 UNL     1     -24.505 -32.729   1.734  0.00  0.00    +0.005 C 
ATOM     13  C11 UNL     1     -23.670 -33.995   1.888  0.00  0.00    +0.005 C 
ATOM     14  C12 UNL     1     -22.289 -33.797   1.262  0.00  0.00    +0.038 C 
ENDROOT
BRANCH   1  16
ATOM     15  O1  UNL     1     -17.707 -29.124   3.596  0.00  0.00    -0.143 OA
ATOM     16  N1  UNL     1     -18.629 -28.478   3.058  0.00  0.00    -0.025 NA
ENDBRANCH   1  16
BRANCH   4  17
ATOM     17  N2  UNL     1     -19.386 -33.361   0.893  0.00  0.00    -0.128 N 
BRANCH  17  18
ATOM     18  O2  UNL     1     -19.124 -33.320  -0.436  0.00  0.00    -0.262 OA
ATOM     19  H2  UNL     1     -18.301 -32.773  -0.516  0.00  0.00    +0.247 HD
ENDBRANCH  17  18
BRANCH  17  20
ATOM     20  O3  UNL     1     -18.828 -34.347   1.639  0.00  0.00    -0.262 OA
ATOM     21  H3  UNL     1     -17.929 -34.007   1.881  0.00  0.00    +0.247 HD
ENDBRANCH  17  20
ENDBRANCH   4  17
TORSDOF 4
ENDMDL
MODEL 9
REMARK minimizedAffinity -5.46494579
REMARK minimizedRMSD -1
REMARK  Name = /home/tchapet/Post-Doc/ARTICLES-DOSSIERS-DES-ARTICLES-EN-REDACTION/NOUVELS-AXES-DE-RECHERCHE-A-REGARDER-URGEMMENT/ARTICLES-EN-REDACTIONS/ARTICLE_MVOTO/Paper2_Sensors_ActuatorsB/docking_rerun/ligands/4550.pdb
REMARK  4 active torsions:
REMARK  status: ('A' for Active; 'I' for Inactive)
REMARK    1  A    between atoms: N1_2  and  C1_3
REMARK    2  A    between atoms: C4_6  and  N2_7
REMARK    3  A    between atoms: N2_7  and  O2_8
REMARK    4  A    between atoms: N2_7  and  O3_9
REMARK                            x       y       z     vdW  Elec       q    Type
REMARK                         _______ _______ _______ _____ _____    ______ ____
ROOT
ATOM      1  C1  UNL     1     -21.747 -33.698   1.178  0.00  0.00    +0.180 C 
ATOM      2  C2  UNL     1     -20.969 -32.675   1.483  0.00  0.00    +0.034 A 
ATOM      3  C3  UNL     1     -19.610 -32.511   1.250  0.00  0.00    +0.043 A 
ATOM      4  C4  UNL     1     -18.984 -31.321   1.672  0.00  0.00    +0.099 A 
ATOM      5  C5  UNL     1     -19.760 -30.287   2.289  0.00  0.00    -0.014 A 
ATOM      6  C6  UNL     1     -21.149 -30.499   2.542  0.00  0.00    -0.018 A 
ATOM      7  C7  UNL     1     -21.727 -31.700   2.113  0.00  0.00    +0.070 A 
ATOM      8  N3  UNL     1     -22.980 -32.019   2.242  0.00  0.00    -0.174 NA
ATOM      9  C8  UNL     1     -23.061 -33.313   1.653  0.00  0.00    +0.290 C 
ATOM     10  O4  UNL     1     -24.117 -33.991   1.570  0.00  0.00    -0.266 OA
ATOM     11  C9  UNL     1     -22.031 -29.428   3.151  0.00  0.00    +0.037 C 
ATOM     12  C10 UNL     1     -21.233 -28.327   3.847  0.00  0.00    +0.005 C 
ATOM     13  C11 UNL     1     -20.100 -27.850   2.945  0.00  0.00    +0.005 C 
ATOM     14  C12 UNL     1     -19.102 -28.984   2.707  0.00  0.00    +0.038 C 
ENDROOT
BRANCH   1  16
ATOM     15  O1  UNL     1     -21.751 -35.160  -0.635  0.00  0.00    -0.143 OA
ATOM     16  N1  UNL     1     -21.356 -34.904   0.520  0.00  0.00    -0.025 NA
ENDBRANCH   1  16
BRANCH   4  17
ATOM     17  N2  UNL     1     -17.564 -31.184   1.463  0.00  0.00    -0.128 N 
BRANCH  17  18
ATOM     18  O2  UNL     1     -16.682 -31.474   2.450  0.00  0.00    -0.262 OA
ATOM     19  H2  UNL     1     -16.491 -32.441   2.343  0.00  0.00    +0.247 HD
ENDBRANCH  17  18
BRANCH  17  20
ATOM     20  O3  UNL     1     -17.088 -30.811   0.249  0.00  0.00    -0.262 OA
ATOM     21  H3  UNL     1     -16.913 -31.661  -0.230  0.00  0.00    +0.247 HD
ENDBRANCH  17  20
ENDBRANCH   4  17
TORSDOF 4
ENDMDL
