MODEL 1
REMARK minimizedAffinity -7.9362154
REMARK minimizedRMSD -1
REMARK  Name = /home/tchapet/Post-Doc/ARTICLES-DOSSIERS-DES-ARTICLES-EN-REDACTION/NOUVELS-AXES-DE-RECHERCHE-A-REGARDER-URGEMMENT/ARTICLES-EN-REDACTIONS/ARTICLE_MVOTO/Paper2_Sensors_ActuatorsB/docking_rerun/ligands/4550.pdb
REMARK  4 active torsions:
REMARK  status: ('A' for Active; 'I' for Inactive)
REMARK    1  A    between atoms: N1_2  and  C1_3
REMARK    2  A    between atoms: C4_6  and  N2_7
REMARK    3  A    between atoms: N2_7  and  O2_8
REMARK    4  A    between atoms: N2_7  and  O3_9
REMARK                            x       y       z     vdW  Elec       q    Type
REMARK                         _______ _______ _______ _____ _____    ______ ____
ROOT
ATOM      1  C1  UNL     1     -10.989  14.224  28.710  0.00  0.00    +0.180 C 
ATOM      2  C2  UNL     1     -11.115  14.679  29.943  0.00  0.00    +0.034 A 
ATOM      3  C3  UNL     1     -12.198  14.574  30.807  0.00  0.00    +0.043 A 
ATOM      4  C4  UNL     1     -12.105  15.147  32.091  0.00  0.00    +0.099 A 
ATOM      5  C5  UNL     1     -10.890  15.787  32.500  0.00  0.00    -0.014 A 
ATOM      6  C6  UNL     1      -9.807  15.906  31.578  0.00  0.00    -0.018 A 
ATOM      7  C7  UNL     1      -9.947  15.329  30.310  0.00  0.00    +0.070 A 
ATOM      8  N3  UNL     1      -9.038  15.326  29.381  0.00  0.00    -0.174 NA
ATOM      9  C8  UNL     1      -9.655  14.621  28.308  0.00  0.00    +0.290 C 
ATOM     10  O4  UNL     1      -9.106  14.394  27.199  0.00  0.00    -0.266 OA
ATOM     11  C9  UNL     1      -8.483  16.532  31.965  0.00  0.00    +0.037 C 
ATOM     12  C10 UNL     1      -8.576  17.385  33.230  0.00  0.00    +0.005 C 
ATOM     13  C11 UNL     1      -9.320  16.624  34.321  0.00  0.00    +0.005 C 
ATOM     14  C12 UNL     1     -10.767  16.369  33.897  0.00  0.00    +0.038 C 
ENDROOT
BRANCH   1  16
ATOM     15  O1  UNL     1     -11.833  12.274  27.755  0.00  0.00    -0.143 OA
ATOM     16  N1  UNL     1     -11.965  13.497  27.962  0.00  0.00    -0.025 NA
ENDBRANCH   1  16
BRANCH   4  17
ATOM     17  N2  UNL     1     -13.253  15.068  32.960  0.00  0.00    -0.128 N 
BRANCH  17  18
ATOM     18  O2  UNL     1     -14.159  16.074  33.014  0.00  0.00    -0.262 OA
ATOM     19  H2  UNL     1     -14.820  15.860  32.307  0.00  0.00    +0.247 HD
ENDBRANCH  17  18
BRANCH  17  20
ATOM     20  O3  UNL     1     -13.470  13.953  33.700  0.00  0.00    -0.262 OA
ATOM     21  H3  UNL     1     -14.057  13.383  33.139  0.00  0.00    +0.247 HD
ENDBRANCH  17  20
ENDBRANCH   4  17
TORSDOF 4
ENDMDL
MODEL 2
REMARK minimizedAffinity -7.76748562
REMARK minimizedRMSD -1
REMARK  Name = /home/tchapet/Post-Doc/ARTICLES-DOSSIERS-DES-ARTICLES-EN-REDACTION/NOUVELS-AXES-DE-RECHERCHE-A-REGARDER-URGEMMENT/ARTICLES-EN-REDACTIONS/ARTICLE_MVOTO/Paper2_Sensors_ActuatorsB/docking_rerun/ligands/4550.pdb
REMARK  4 active torsions:
REMARK  status: ('A' for Active; 'I' for Inactive)
REMARK    1  A    between atoms: N1_2  and  C1_3
REMARK    2  A    between atoms: C4_6  and  N2_7
REMARK    3  A    between atoms: N2_7  and  O2_8
REMARK    4  A    between atoms: N2_7  and  O3_9
REMARK                            x       y       z     vdW  Elec       q    Type
REMARK                         _______ _______ _______ _____ _____    ______ ____
ROOT
ATOM      1  C1  UNL     1     -11.142  15.553  32.770  0.00  0.00    +0.180 C 
ATOM      2  C2  UNL     1     -11.025  15.190  31.505  0.00  0.00    +0.034 A 
ATOM      3  C3  UNL     1      -9.958  15.382  30.637  0.00  0.00    +0.043 A 
ATOM      4  C4  UNL     1     -10.060  14.904  29.315  0.00  0.00    +0.099 A 
ATOM      5  C5  UNL     1     -11.234  14.195  28.901  0.00  0.00    -0.014 A 
ATOM      6  C6  UNL     1     -12.326  14.042  29.809  0.00  0.00    -0.018 A 
ATOM      7  C7  UNL     1     -12.183  14.540  31.110  0.00  0.00    +0.070 A 
ATOM      8  N3  UNL     1     -13.073  14.445  32.053  0.00  0.00    -0.174 NA
ATOM      9  C8  UNL     1     -12.457  15.088  33.163  0.00  0.00    +0.290 C 
ATOM     10  O4  UNL     1     -12.991  15.217  34.295  0.00  0.00    -0.266 OA
ATOM     11  C9  UNL     1     -13.574  13.265  29.445  0.00  0.00    +0.037 C 
ATOM     12  C10 UNL     1     -13.731  13.063  27.939  0.00  0.00    +0.005 C 
ATOM     13  C11 UNL     1     -12.419  12.573  27.337  0.00  0.00    +0.005 C 
ATOM     14  C12 UNL     1     -11.334  13.640  27.492  0.00  0.00    +0.038 C 
ENDROOT
BRANCH   1  16
ATOM     15  O1  UNL     1     -10.520  17.032  34.459  0.00  0.00    -0.143 OA
ATOM     16  N1  UNL     1     -10.171  16.246  33.555  0.00  0.00    -0.025 NA
ENDBRANCH   1  16
BRANCH   4  17
ATOM     17  N2  UNL     1      -8.963  15.150  28.413  0.00  0.00    -0.128 N 
BRANCH  17  18
ATOM     18  O2  UNL     1      -7.994  14.222  28.222  0.00  0.00    -0.262 OA
ATOM     19  H2  UNL     1      -8.329  13.654  27.481  0.00  0.00    +0.247 HD
ENDBRANCH  17  18
BRANCH  17  20
ATOM     20  O3  UNL     1      -8.915  16.301  27.697  0.00  0.00    -0.262 OA
ATOM     21  H3  UNL     1      -9.362  16.087  26.838  0.00  0.00    +0.247 HD
ENDBRANCH  17  20
ENDBRANCH   4  17
TORSDOF 4
ENDMDL
MODEL 3
REMARK minimizedAffinity -7.59959269
REMARK minimizedRMSD -1
REMARK  Name = /home/tchapet/Post-Doc/ARTICLES-DOSSIERS-DES-ARTICLES-EN-REDACTION/NOUVELS-AXES-DE-RECHERCHE-A-REGARDER-URGEMMENT/ARTICLES-EN-REDACTIONS/ARTICLE_MVOTO/Paper2_Sensors_ActuatorsB/docking_rerun/ligands/4550.pdb
REMARK  4 active torsions:
REMARK  status: ('A' for Active; 'I' for Inactive)
REMARK    1  A    between atoms: N1_2  and  C1_3
REMARK    2  A    between atoms: C4_6  and  N2_7
REMARK    3  A    between atoms: N2_7  and  O2_8
REMARK    4  A    between atoms: N2_7  and  O3_9
REMARK                            x       y       z     vdW  Elec       q    Type
REMARK                         _______ _______ _______ _____ _____    ______ ____
ROOT
ATOM      1  C1  UNL     1      -8.566  15.274  27.291  0.00  0.00    +0.180 C 
ATOM      2  C2  UNL     1      -8.336  15.917  26.160  0.00  0.00    +0.034 A 
ATOM      3  C3  UNL     1      -7.247  16.706  25.810  0.00  0.00    +0.043 A 
ATOM      4  C4  UNL     1      -7.218  17.301  24.534  0.00  0.00    +0.099 A 
ATOM      5  C5  UNL     1      -8.281  17.052  23.606  0.00  0.00    -0.014 A 
ATOM      6  C6  UNL     1      -9.402  16.263  24.008  0.00  0.00    -0.018 A 
ATOM      7  C7  UNL     1      -9.391  15.698  25.289  0.00  0.00    +0.070 A 
ATOM      8  N3  UNL     1     -10.319  14.932  25.780  0.00  0.00    -0.174 NA
ATOM      9  C8  UNL     1      -9.843  14.621  27.086  0.00  0.00    +0.290 C 
ATOM     10  O4  UNL     1     -10.455  13.891  27.909  0.00  0.00    -0.266 OA
ATOM     11  C9  UNL     1     -10.534  15.928  23.059  0.00  0.00    +0.037 C 
ATOM     12  C10 UNL     1     -10.578  16.847  21.839  0.00  0.00    +0.005 C 
ATOM     13  C11 UNL     1      -9.188  16.974  21.228  0.00  0.00    +0.005 C 
ATOM     14  C12 UNL     1      -8.237  17.656  22.214  0.00  0.00    +0.038 C 
ENDROOT
BRANCH   1  16
ATOM     15  O1  UNL     1      -8.116  15.699  29.536  0.00  0.00    -0.143 OA
ATOM     16  N1  UNL     1      -7.725  15.241  28.444  0.00  0.00    -0.025 NA
ENDBRANCH   1  16
BRANCH   4  17
ATOM     17  N2  UNL     1      -6.103  18.152  24.201  0.00  0.00    -0.128 N 
BRANCH  17  18
ATOM     18  O2  UNL     1      -4.980  17.645  23.638  0.00  0.00    -0.262 OA
ATOM     19  H2  UNL     1      -5.149  17.675  22.662  0.00  0.00    +0.247 HD
ENDBRANCH  17  18
BRANCH  17  20
ATOM     20  O3  UNL     1      -6.186  19.491  24.401  0.00  0.00    -0.262 OA
ATOM     21  H3  UNL     1      -6.515  19.859  23.541  0.00  0.00    +0.247 HD
ENDBRANCH  17  20
ENDBRANCH   4  17
TORSDOF 4
ENDMDL
MODEL 4
REMARK minimizedAffinity -7.4929347
REMARK minimizedRMSD -1
REMARK  Name = /home/tchapet/Post-Doc/ARTICLES-DOSSIERS-DES-ARTICLES-EN-REDACTION/NOUVELS-AXES-DE-RECHERCHE-A-REGARDER-URGEMMENT/ARTICLES-EN-REDACTIONS/ARTICLE_MVOTO/Paper2_Sensors_ActuatorsB/docking_rerun/ligands/4550.pdb
REMARK  4 active torsions:
REMARK  status: ('A' for Active; 'I' for Inactive)
REMARK    1  A    between atoms: N1_2  and  C1_3
REMARK    2  A    between atoms: C4_6  and  N2_7
REMARK    3  A    between atoms: N2_7  and  O2_8
REMARK    4  A    between atoms: N2_7  and  O3_9
REMARK                            x       y       z     vdW  Elec       q    Type
REMARK                         _______ _______ _______ _____ _____    ______ ____
ROOT
ATOM      1  C1  UNL     1      -9.332  14.935  28.259  0.00  0.00    +0.180 C 
ATOM      2  C2  UNL     1      -9.994  15.043  29.397  0.00  0.00    +0.034 A 
ATOM      3  C3  UNL     1     -11.282  14.623  29.702  0.00  0.00    +0.043 A 
ATOM      4  C4  UNL     1     -11.785  14.850  30.998  0.00  0.00    +0.099 A 
ATOM      5  C5  UNL     1     -10.954  15.466  31.989  0.00  0.00    -0.014 A 
ATOM      6  C6  UNL     1      -9.645  15.915  31.635  0.00  0.00    -0.018 A 
ATOM      7  C7  UNL     1      -9.190  15.675  30.333  0.00  0.00    +0.070 A 
ATOM      8  N3  UNL     1      -8.015  15.993  29.877  0.00  0.00    -0.174 NA
ATOM      9  C8  UNL     1      -8.042  15.539  28.528  0.00  0.00    +0.290 C 
ATOM     10  O4  UNL     1      -7.085  15.656  27.720  0.00  0.00    -0.266 OA
ATOM     11  C9  UNL     1      -8.704  16.533  32.648  0.00  0.00    +0.037 C 
ATOM     12  C10 UNL     1      -9.420  17.018  33.907  0.00  0.00    +0.005 C 
ATOM     13  C11 UNL     1     -10.365  15.938  34.421  0.00  0.00    +0.005 C 
ATOM     14  C12 UNL     1     -11.474  15.676  33.399  0.00  0.00    +0.038 C 
ENDROOT
BRANCH   1  16
ATOM     15  O1  UNL     1     -10.292  15.047  26.140  0.00  0.00    -0.143 OA
ATOM     16  N1  UNL     1      -9.803  14.344  27.047  0.00  0.00    -0.025 NA
ENDBRANCH   1  16
BRANCH   4  17
ATOM     17  N2  UNL     1     -13.140  14.448  31.286  0.00  0.00    -0.128 N 
BRANCH  17  18
ATOM     18  O2  UNL     1     -14.193  15.198  30.878  0.00  0.00    -0.262 OA
ATOM     19  H2  UNL     1     -14.406  14.864  29.969  0.00  0.00    +0.247 HD
ENDBRANCH  17  18
BRANCH  17  20
ATOM     20  O3  UNL     1     -13.380  13.278  31.927  0.00  0.00    -0.262 OA
ATOM     21  H3  UNL     1     -13.507  12.611  31.204  0.00  0.00    +0.247 HD
ENDBRANCH  17  20
ENDBRANCH   4  17
TORSDOF 4
ENDMDL
MODEL 5
REMARK minimizedAffinity -7.44220734
REMARK minimizedRMSD -1
REMARK  Name = /home/tchapet/Post-Doc/ARTICLES-DOSSIERS-DES-ARTICLES-EN-REDACTION/NOUVELS-AXES-DE-RECHERCHE-A-REGARDER-URGEMMENT/ARTICLES-EN-REDACTIONS/ARTICLE_MVOTO/Paper2_Sensors_ActuatorsB/docking_rerun/ligands/4550.pdb
REMARK  4 active torsions:
REMARK  status: ('A' for Active; 'I' for Inactive)
REMARK    1  A    between atoms: N1_2  and  C1_3
REMARK    2  A    between atoms: C4_6  and  N2_7
REMARK    3  A    between atoms: N2_7  and  O2_8
REMARK    4  A    between atoms: N2_7  and  O3_9
REMARK                            x       y       z     vdW  Elec       q    Type
REMARK                         _______ _______ _______ _____ _____    ______ ____
ROOT
ATOM      1  C1  UNL     1     -13.357  14.286  30.034  0.00  0.00    +0.180 C 
ATOM      2  C2  UNL     1     -12.323  15.107  30.006  0.00  0.00    +0.034 A 
ATOM      3  C3  UNL     1     -12.006  16.081  29.067  0.00  0.00    +0.043 A 
ATOM      4  C4  UNL     1     -10.835  16.844  29.244  0.00  0.00    +0.099 A 
ATOM      5  C5  UNL     1     -10.017  16.638  30.402  0.00  0.00    -0.014 A 
ATOM      6  C6  UNL     1     -10.353  15.608  31.332  0.00  0.00    -0.018 A 
ATOM      7  C7  UNL     1     -11.522  14.869  31.111  0.00  0.00    +0.070 A 
ATOM      8  N3  UNL     1     -11.973  13.927  31.886  0.00  0.00    -0.174 NA
ATOM      9  C8  UNL     1     -13.169  13.503  31.239  0.00  0.00    +0.290 C 
ATOM     10  O4  UNL     1     -13.923  12.592  31.668  0.00  0.00    -0.266 OA
ATOM     11  C9  UNL     1      -9.554  15.371  32.596  0.00  0.00    +0.037 C 
ATOM     12  C10 UNL     1      -8.165  16.007  32.550  0.00  0.00    +0.005 C 
ATOM     13  C11 UNL     1      -8.266  17.448  32.063  0.00  0.00    +0.005 C 
ATOM     14  C12 UNL     1      -8.777  17.485  30.622  0.00  0.00    +0.038 C 
ENDROOT
BRANCH   1  16
ATOM     15  O1  UNL     1     -14.211  13.778  27.928  0.00  0.00    -0.143 OA
ATOM     16  N1  UNL     1     -14.416  14.210  29.079  0.00  0.00    -0.025 NA
ENDBRANCH   1  16
BRANCH   4  17
ATOM     17  N2  UNL     1     -10.496  17.820  28.238  0.00  0.00    -0.128 N 
BRANCH  17  18
ATOM     18  O2  UNL     1      -9.453  17.623  27.396  0.00  0.00    -0.262 OA
ATOM     19  H2  UNL     1      -9.837  17.129  26.627  0.00  0.00    +0.247 HD
ENDBRANCH  17  18
BRANCH  17  20
ATOM     20  O3  UNL     1     -11.257  18.932  28.087  0.00  0.00    -0.262 OA
ATOM     21  H3  UNL     1     -11.928  18.692  27.397  0.00  0.00    +0.247 HD
ENDBRANCH  17  20
ENDBRANCH   4  17
TORSDOF 4
ENDMDL
MODEL 6
REMARK minimizedAffinity -7.36700821
REMARK minimizedRMSD -1
REMARK  Name = /home/tchapet/Post-Doc/ARTICLES-DOSSIERS-DES-ARTICLES-EN-REDACTION/NOUVELS-AXES-DE-RECHERCHE-A-REGARDER-URGEMMENT/ARTICLES-EN-REDACTIONS/ARTICLE_MVOTO/Paper2_Sensors_ActuatorsB/docking_rerun/ligands/4550.pdb
REMARK  4 active torsions:
REMARK  status: ('A' for Active; 'I' for Inactive)
REMARK    1  A    between atoms: N1_2  and  C1_3
REMARK    2  A    between atoms: C4_6  and  N2_7
REMARK    3  A    between atoms: N2_7  and  O2_8
REMARK    4  A    between atoms: N2_7  and  O3_9
REMARK                            x       y       z     vdW  Elec       q    Type
REMARK                         _______ _______ _______ _____ _____    ______ ____
ROOT
ATOM      1  C1  UNL     1      -9.878  16.110  32.759  0.00  0.00    +0.180 C 
ATOM      2  C2  UNL     1     -10.344  15.439  31.722  0.00  0.00    +0.034 A 
ATOM      3  C3  UNL     1     -11.353  14.485  31.681  0.00  0.00    +0.043 A 
ATOM      4  C4  UNL     1     -11.682  13.893  30.445  0.00  0.00    +0.099 A 
ATOM      5  C5  UNL     1     -11.007  14.309  29.252  0.00  0.00    -0.014 A 
ATOM      6  C6  UNL     1      -9.953  15.268  29.333  0.00  0.00    -0.018 A 
ATOM      7  C7  UNL     1      -9.655  15.824  30.583  0.00  0.00    +0.070 A 
ATOM      8  N3  UNL     1      -8.749  16.730  30.806  0.00  0.00    -0.174 NA
ATOM      9  C8  UNL     1      -8.842  16.961  32.209  0.00  0.00    +0.290 C 
ATOM     10  O4  UNL     1      -8.126  17.779  32.842  0.00  0.00    -0.266 OA
ATOM     11  C9  UNL     1      -9.232  15.781  28.103  0.00  0.00    +0.037 C 
ATOM     12  C10 UNL     1      -9.425  14.881  26.884  0.00  0.00    +0.005 C 
ATOM     13  C11 UNL     1     -10.900  14.532  26.718  0.00  0.00    +0.005 C 
ATOM     14  C12 UNL     1     -11.385  13.706  27.911  0.00  0.00    +0.038 C 
ENDROOT
BRANCH   1  16
ATOM     15  O1  UNL     1     -10.888  16.965  34.676  0.00  0.00    -0.143 OA
ATOM     16  N1  UNL     1     -10.319  16.008  34.114  0.00  0.00    -0.025 NA
ENDBRANCH   1  16
BRANCH   4  17
ATOM     17  N2  UNL     1     -12.701  12.873  30.426  0.00  0.00    -0.128 N 
BRANCH  17  18
ATOM     18  O2  UNL     1     -12.382  11.563  30.555  0.00  0.00    -0.262 OA
ATOM     19  H2  UNL     1     -12.391  11.395  31.533  0.00  0.00    +0.247 HD
ENDBRANCH  17  18
BRANCH  17  20
ATOM     20  O3  UNL     1     -14.009  13.220  30.330  0.00  0.00    -0.262 OA
ATOM     21  H3  UNL     1     -14.325  13.290  31.267  0.00  0.00    +0.247 HD
ENDBRANCH  17  20
ENDBRANCH   4  17
TORSDOF 4
ENDMDL
MODEL 7
REMARK minimizedAffinity -7.35741663
REMARK minimizedRMSD -1
REMARK  Name = /home/tchapet/Post-Doc/ARTICLES-DOSSIERS-DES-ARTICLES-EN-REDACTION/NOUVELS-AXES-DE-RECHERCHE-A-REGARDER-URGEMMENT/ARTICLES-EN-REDACTIONS/ARTICLE_MVOTO/Paper2_Sensors_ActuatorsB/docking_rerun/ligands/4550.pdb
REMARK  4 active torsions:
REMARK  status: ('A' for Active; 'I' for Inactive)
REMARK    1  A    between atoms: N1_2  and  C1_3
REMARK    2  A    between atoms: C4_6  and  N2_7
REMARK    3  A    between atoms: N2_7  and  O2_8
REMARK    4  A    between atoms: N2_7  and  O3_9
REMARK                            x       y       z     vdW  Elec       q    Type
REMARK                         _______ _______ _______ _____ _____    ______ ____
ROOT
ATOM      1  C1  UNL     1     -12.460  13.167  29.826  0.00  0.00    +0.180 C 
ATOM      2  C2  UNL     1     -11.801  13.869  30.730  0.00  0.00    +0.034 A 
ATOM      3  C3  UNL     1     -12.009  13.943  32.101  0.00  0.00    +0.043 A 
ATOM      4  C4  UNL     1     -11.173  14.772  32.874  0.00  0.00    +0.099 A 
ATOM      5  C5  UNL     1     -10.101  15.488  32.248  0.00  0.00    -0.014 A 
ATOM      6  C6  UNL     1      -9.934  15.416  30.832  0.00  0.00    -0.018 A 
ATOM      7  C7  UNL     1     -10.794  14.586  30.103  0.00  0.00    +0.070 A 
ATOM      8  N3  UNL     1     -10.741  14.392  28.818  0.00  0.00    -0.174 NA
ATOM      9  C8  UNL     1     -11.804  13.476  28.572  0.00  0.00    +0.290 C 
ATOM     10  O4  UNL     1     -12.102  13.024  27.437  0.00  0.00    -0.266 OA
ATOM     11  C9  UNL     1      -8.795  16.114  30.118  0.00  0.00    +0.037 C 
ATOM     12  C10 UNL     1      -8.149  17.212  30.962  0.00  0.00    +0.005 C 
ATOM     13  C11 UNL     1      -7.861  16.693  32.366  0.00  0.00    +0.005 C 
ATOM     14  C12 UNL     1      -9.170  16.350  33.081  0.00  0.00    +0.038 C 
ENDROOT
BRANCH   1  16
ATOM     15  O1  UNL     1     -14.658  12.742  30.468  0.00  0.00    -0.143 OA
ATOM     16  N1  UNL     1     -13.568  12.296  30.060  0.00  0.00    -0.025 NA
ENDBRANCH   1  16
BRANCH   4  17
ATOM     17  N2  UNL     1     -11.429  14.872  34.289  0.00  0.00    -0.128 N 
BRANCH  17  18
ATOM     18  O2  UNL     1     -12.228  15.847  34.788  0.00  0.00    -0.262 OA
ATOM     19  H2  UNL     1     -13.142  15.463  34.764  0.00  0.00    +0.247 HD
ENDBRANCH  17  18
BRANCH  17  20
ATOM     20  O3  UNL     1     -10.912  13.952  35.141  0.00  0.00    -0.262 OA
ATOM     21  H3  UNL     1     -11.615  13.259  35.227  0.00  0.00    +0.247 HD
ENDBRANCH  17  20
ENDBRANCH   4  17
TORSDOF 4
ENDMDL
MODEL 8
REMARK minimizedAffinity -7.28462934
REMARK minimizedRMSD -1
REMARK  Name = /home/tchapet/Post-Doc/ARTICLES-DOSSIERS-DES-ARTICLES-EN-REDACTION/NOUVELS-AXES-DE-RECHERCHE-A-REGARDER-URGEMMENT/ARTICLES-EN-REDACTIONS/ARTICLE_MVOTO/Paper2_Sensors_ActuatorsB/docking_rerun/ligands/4550.pdb
REMARK  4 active torsions:
REMARK  status: ('A' for Active; 'I' for Inactive)
REMARK    1  A    between atoms: N1_2  and  C1_3
REMARK    2  A    between atoms: C4_6  and  N2_7
REMARK    3  A    between atoms: N2_7  and  O2_8
REMARK    4  A    between atoms: N2_7  and  O3_9
REMARK                            x       y       z     vdW  Elec       q    Type
REMARK                         _______ _______ _______ _____ _____    ______ ____
ROOT
ATOM      1  C1  UNL     1      -9.110  16.808  30.345  0.00  0.00    +0.180 C 
ATOM      2  C2  UNL     1     -10.172  16.023  30.376  0.00  0.00    +0.034 A 
ATOM      3  C3  UNL     1     -11.107  15.859  31.389  0.00  0.00    +0.043 A 
ATOM      4  C4  UNL     1     -12.169  14.952  31.198  0.00  0.00    +0.099 A 
ATOM      5  C5  UNL     1     -12.293  14.252  29.955  0.00  0.00    -0.014 A 
ATOM      6  C6  UNL     1     -11.297  14.418  28.945  0.00  0.00    -0.018 A 
ATOM      7  C7  UNL     1     -10.255  15.324  29.182  0.00  0.00    +0.070 A 
ATOM      8  N3  UNL     1      -9.300  15.606  28.347  0.00  0.00    -0.174 NA
ATOM      9  C8  UNL     1      -8.516  16.568  29.045  0.00  0.00    +0.290 C 
ATOM     10  O4  UNL     1      -7.478  17.108  28.582  0.00  0.00    -0.266 OA
ATOM     11  C9  UNL     1     -11.396  13.740  27.595  0.00  0.00    +0.037 C 
ATOM     12  C10 UNL     1     -12.374  12.566  27.590  0.00  0.00    +0.005 C 
ATOM     13  C11 UNL     1     -13.687  12.975  28.248  0.00  0.00    +0.005 C 
ATOM     14  C12 UNL     1     -13.457  13.305  29.724  0.00  0.00    +0.038 C 
ENDROOT
BRANCH   1  16
ATOM     15  O1  UNL     1      -8.026  17.264  32.356  0.00  0.00    -0.143 OA
ATOM     16  N1  UNL     1      -8.668  17.692  31.376  0.00  0.00    -0.025 NA
ENDBRANCH   1  16
BRANCH   4  17
ATOM     17  N2  UNL     1     -13.106  14.760  32.276  0.00  0.00    -0.128 N 
BRANCH  17  18
ATOM     18  O2  UNL     1     -13.275  13.542  32.846  0.00  0.00    -0.262 OA
ATOM     19  H2  UNL     1     -12.603  13.507  33.574  0.00  0.00    +0.247 HD
ENDBRANCH  17  18
BRANCH  17  20
ATOM     20  O3  UNL     1     -13.798  15.815  32.772  0.00  0.00    -0.262 OA
ATOM     21  H3  UNL     1     -13.248  16.151  33.526  0.00  0.00    +0.247 HD
ENDBRANCH  17  20
ENDBRANCH   4  17
TORSDOF 4
ENDMDL
MODEL 9
REMARK minimizedAffinity -7.17986727
REMARK minimizedRMSD -1
REMARK  Name = /home/tchapet/Post-Doc/ARTICLES-DOSSIERS-DES-ARTICLES-EN-REDACTION/NOUVELS-AXES-DE-RECHERCHE-A-REGARDER-URGEMMENT/ARTICLES-EN-REDACTIONS/ARTICLE_MVOTO/Paper2_Sensors_ActuatorsB/docking_rerun/ligands/4550.pdb
REMARK  4 active torsions:
REMARK  status: ('A' for Active; 'I' for Inactive)
REMARK    1  A    between atoms: N1_2  and  C1_3
REMARK    2  A    between atoms: C4_6  and  N2_7
REMARK    3  A    between atoms: N2_7  and  O2_8
REMARK    4  A    between atoms: N2_7  and  O3_9
REMARK                            x       y       z     vdW  Elec       q    Type
REMARK                         _______ _______ _______ _____ _____    ______ ____
ROOT
ATOM      1  C1  UNL     1     -12.789  14.317  31.414  0.00  0.00    +0.180 C 
ATOM      2  C2  UNL     1     -11.787  14.854  30.742  0.00  0.00    +0.034 A 
ATOM      3  C3  UNL     1     -10.807  15.732  31.190  0.00  0.00    +0.043 A 
ATOM      4  C4  UNL     1      -9.828  16.181  30.282  0.00  0.00    +0.099 A 
ATOM      5  C5  UNL     1      -9.829  15.697  28.934  0.00  0.00    -0.014 A 
ATOM      6  C6  UNL     1     -10.868  14.821  28.496  0.00  0.00    -0.018 A 
ATOM      7  C7  UNL     1     -11.825  14.407  29.431  0.00  0.00    +0.070 A 
ATOM      8  N3  UNL     1     -12.805  13.588  29.191  0.00  0.00    -0.174 NA
ATOM      9  C8  UNL     1     -13.475  13.487  30.443  0.00  0.00    +0.290 C 
ATOM     10  O4  UNL     1     -14.497  12.781  30.647  0.00  0.00    -0.266 OA
ATOM     11  C9  UNL     1     -10.899  14.241  27.098  0.00  0.00    +0.037 C 
ATOM     12  C10 UNL     1     -10.011  15.006  26.118  0.00  0.00    +0.005 C 
ATOM     13  C11 UNL     1      -8.635  15.241  26.731  0.00  0.00    +0.005 C 
ATOM     14  C12 UNL     1      -8.752  16.143  27.961  0.00  0.00    +0.038 C 
ENDROOT
BRANCH   1  16
ATOM     15  O1  UNL     1     -13.634  15.579  33.179  0.00  0.00    -0.143 OA
ATOM     16  N1  UNL     1     -13.103  14.519  32.792  0.00  0.00    -0.025 NA
ENDBRANCH   1  16
BRANCH   4  17
ATOM     17  N2  UNL     1      -8.844  17.125  30.750  0.00  0.00    -0.128 N 
BRANCH  17  18
ATOM     18  O2  UNL     1      -8.934  18.441  30.437  0.00  0.00    -0.262 OA
ATOM     19  H2  UNL     1      -9.491  18.835  31.157  0.00  0.00    +0.247 HD
ENDBRANCH  17  18
BRANCH  17  20
ATOM     20  O3  UNL     1      -7.837  16.714  31.560  0.00  0.00    -0.262 OA
ATOM     21  H3  UNL     1      -8.175  16.855  32.481  0.00  0.00    +0.247 HD
ENDBRANCH  17  20
ENDBRANCH   4  17
TORSDOF 4
ENDMDL
