MODEL 1
REMARK minimizedAffinity -6.52736425
REMARK minimizedRMSD -1
REMARK  Name = /home/tchapet/Post-Doc/ARTICLES-DOSSIERS-DES-ARTICLES-EN-REDACTION/NOUVELS-AXES-DE-RECHERCHE-A-REGARDER-URGEMMENT/ARTICLES-EN-REDACTIONS/ARTICLE_MVOTO/Paper2_Sensors_ActuatorsB/docking_rerun/ligands/4550.pdb
REMARK  4 active torsions:
REMARK  status: ('A' for Active; 'I' for Inactive)
REMARK    1  A    between atoms: N1_2  and  C1_3
REMARK    2  A    between atoms: C4_6  and  N2_7
REMARK    3  A    between atoms: N2_7  and  O2_8
REMARK    4  A    between atoms: N2_7  and  O3_9
REMARK                            x       y       z     vdW  Elec       q    Type
REMARK                         _______ _______ _______ _____ _____    ______ ____
ROOT
ATOM      1  C1  UNL     1      13.718  -2.765   8.837  0.00  0.00    +0.180 C 
ATOM      2  C2  UNL     1      13.743  -2.595   7.528  0.00  0.00    +0.034 A 
ATOM      3  C3  UNL     1      13.432  -1.461   6.788  0.00  0.00    +0.043 A 
ATOM      4  C4  UNL     1      13.530  -1.515   5.383  0.00  0.00    +0.099 A 
ATOM      5  C5  UNL     1      13.986  -2.714   4.746  0.00  0.00    -0.014 A 
ATOM      6  C6  UNL     1      14.267  -3.872   5.532  0.00  0.00    -0.018 A 
ATOM      7  C7  UNL     1      14.148  -3.774   6.924  0.00  0.00    +0.070 A 
ATOM      8  N3  UNL     1      14.402  -4.729   7.768  0.00  0.00    -0.174 NA
ATOM      9  C8  UNL     1      14.140  -4.136   9.036  0.00  0.00    +0.290 C 
ATOM     10  O4  UNL     1      14.264  -4.732  10.138  0.00  0.00    -0.266 OA
ATOM     11  C9  UNL     1      14.793  -5.154   4.921  0.00  0.00    +0.037 C 
ATOM     12  C10 UNL     1      14.572  -5.227   3.411  0.00  0.00    +0.005 C 
ATOM     13  C11 UNL     1      15.011  -3.923   2.753  0.00  0.00    +0.005 C 
ATOM     14  C12 UNL     1      14.135  -2.766   3.236  0.00  0.00    +0.038 C 
ENDROOT
BRANCH   1  16
ATOM     15  O1  UNL     1      12.356  -1.958  10.546  0.00  0.00    -0.143 OA
ATOM     16  N1  UNL     1      13.356  -1.793   9.820  0.00  0.00    -0.025 NA
ENDBRANCH   1  16
BRANCH   4  17
ATOM     17  N2  UNL     1      13.162  -0.344   4.627  0.00  0.00    -0.128 N 
BRANCH  17  18
ATOM     18  O2  UNL     1      14.035   0.678   4.452  0.00  0.00    -0.262 OA
ATOM     19  H2  UNL     1      14.539   0.444   3.631  0.00  0.00    +0.247 HD
ENDBRANCH  17  18
BRANCH  17  20
ATOM     20  O3  UNL     1      11.946  -0.273   4.031  0.00  0.00    -0.262 OA
ATOM     21  H3  UNL     1      12.089  -0.622   3.114  0.00  0.00    +0.247 HD
ENDBRANCH  17  20
ENDBRANCH   4  17
TORSDOF 4
ENDMDL
MODEL 2
REMARK minimizedAffinity -5.78190184
REMARK minimizedRMSD -1
REMARK  Name = /home/tchapet/Post-Doc/ARTICLES-DOSSIERS-DES-ARTICLES-EN-REDACTION/NOUVELS-AXES-DE-RECHERCHE-A-REGARDER-URGEMMENT/ARTICLES-EN-REDACTIONS/ARTICLE_MVOTO/Paper2_Sensors_ActuatorsB/docking_rerun/ligands/4550.pdb
REMARK  4 active torsions:
REMARK  status: ('A' for Active; 'I' for Inactive)
REMARK    1  A    between atoms: N1_2  and  C1_3
REMARK    2  A    between atoms: C4_6  and  N2_7
REMARK    3  A    between atoms: N2_7  and  O2_8
REMARK    4  A    between atoms: N2_7  and  O3_9
REMARK                            x       y       z     vdW  Elec       q    Type
REMARK                         _______ _______ _______ _____ _____    ______ ____
ROOT
ATOM      1  C1  UNL     1      14.108  -3.615   8.090  0.00  0.00    +0.180 C 
ATOM      2  C2  UNL     1      14.309  -3.740   6.791  0.00  0.00    +0.034 A 
ATOM      3  C3  UNL     1      14.824  -4.820   6.086  0.00  0.00    +0.043 A 
ATOM      4  C4  UNL     1      14.951  -4.724   4.686  0.00  0.00    +0.099 A 
ATOM      5  C5  UNL     1      14.510  -3.541   4.010  0.00  0.00    -0.014 A 
ATOM      6  C6  UNL     1      14.015  -2.435   4.765  0.00  0.00    -0.018 A 
ATOM      7  C7  UNL     1      13.914  -2.573   6.155  0.00  0.00    +0.070 A 
ATOM      8  N3  UNL     1      13.451  -1.670   6.968  0.00  0.00    -0.174 NA
ATOM      9  C8  UNL     1      13.551  -2.286   8.248  0.00  0.00    +0.290 C 
ATOM     10  O4  UNL     1      13.204  -1.741   9.327  0.00  0.00    -0.266 OA
ATOM     11  C9  UNL     1      13.494  -1.176   4.105  0.00  0.00    +0.037 C 
ATOM     12  C10 UNL     1      13.950  -1.033   2.654  0.00  0.00    +0.005 C 
ATOM     13  C11 UNL     1      13.728  -2.341   1.904  0.00  0.00    +0.005 C 
ATOM     14  C12 UNL     1      14.604  -3.446   2.497  0.00  0.00    +0.038 C 
ENDROOT
BRANCH   1  16
ATOM     15  O1  UNL     1      13.470  -5.033   9.824  0.00  0.00    -0.143 OA
ATOM     16  N1  UNL     1      14.381  -4.591   9.096  0.00  0.00    -0.025 NA
ENDBRANCH   1  16
BRANCH   4  17
ATOM     17  N2  UNL     1      15.528  -5.836   3.974  0.00  0.00    -0.128 N 
BRANCH  17  18
ATOM     18  O2  UNL     1      14.744  -6.751   3.352  0.00  0.00    -0.262 OA
ATOM     19  H2  UNL     1      14.602  -6.386   2.441  0.00  0.00    +0.247 HD
ENDBRANCH  17  18
BRANCH  17  20
ATOM     20  O3  UNL     1      16.875  -5.954   3.872  0.00  0.00    -0.262 OA
ATOM     21  H3  UNL     1      17.108  -5.498   3.023  0.00  0.00    +0.247 HD
ENDBRANCH  17  20
ENDBRANCH   4  17
TORSDOF 4
ENDMDL
MODEL 3
REMARK minimizedAffinity -5.69171
REMARK minimizedRMSD -1
REMARK  Name = /home/tchapet/Post-Doc/ARTICLES-DOSSIERS-DES-ARTICLES-EN-REDACTION/NOUVELS-AXES-DE-RECHERCHE-A-REGARDER-URGEMMENT/ARTICLES-EN-REDACTIONS/ARTICLE_MVOTO/Paper2_Sensors_ActuatorsB/docking_rerun/ligands/4550.pdb
REMARK  4 active torsions:
REMARK  status: ('A' for Active; 'I' for Inactive)
REMARK    1  A    between atoms: N1_2  and  C1_3
REMARK    2  A    between atoms: C4_6  and  N2_7
REMARK    3  A    between atoms: N2_7  and  O2_8
REMARK    4  A    between atoms: N2_7  and  O3_9
REMARK                            x       y       z     vdW  Elec       q    Type
REMARK                         _______ _______ _______ _____ _____    ______ ____
ROOT
ATOM      1  C1  UNL     1      12.044 -15.405  -5.037  0.00  0.00    +0.180 C 
ATOM      2  C2  UNL     1      12.349 -14.822  -3.892  0.00  0.00    +0.034 A 
ATOM      3  C3  UNL     1      11.856 -15.085  -2.620  0.00  0.00    +0.043 A 
ATOM      4  C4  UNL     1      12.332 -14.324  -1.534  0.00  0.00    +0.099 A 
ATOM      5  C5  UNL     1      13.341 -13.329  -1.747  0.00  0.00    -0.014 A 
ATOM      6  C6  UNL     1      13.803 -13.062  -3.071  0.00  0.00    -0.018 A 
ATOM      7  C7  UNL     1      13.296 -13.837  -4.121  0.00  0.00    +0.070 A 
ATOM      8  N3  UNL     1      13.647 -13.734  -5.368  0.00  0.00    -0.174 NA
ATOM      9  C8  UNL     1      12.864 -14.729  -6.021  0.00  0.00    +0.290 C 
ATOM     10  O4  UNL     1      12.901 -14.962  -7.257  0.00  0.00    -0.266 OA
ATOM     11  C9  UNL     1      14.898 -12.054  -3.354  0.00  0.00    +0.037 C 
ATOM     12  C10 UNL     1      15.123 -11.080  -2.199  0.00  0.00    +0.005 C 
ATOM     13  C11 UNL     1      15.218 -11.842  -0.882  0.00  0.00    +0.005 C 
ATOM     14  C12 UNL     1      13.889 -12.535  -0.575  0.00  0.00    +0.038 C 
ENDROOT
BRANCH   1  16
ATOM     15  O1  UNL     1      11.484 -17.659  -5.214  0.00  0.00    -0.143 OA
ATOM     16  N1  UNL     1      11.111 -16.469  -5.235  0.00  0.00    -0.025 NA
ENDBRANCH   1  16
BRANCH   4  17
ATOM     17  N2  UNL     1      11.779 -14.578  -0.227  0.00  0.00    -0.128 N 
BRANCH  17  18
ATOM     18  O2  UNL     1      10.518 -14.190   0.086  0.00  0.00    -0.262 OA
ATOM     19  H2  UNL     1       9.944 -14.953  -0.182  0.00  0.00    +0.247 HD
ENDBRANCH  17  18
BRANCH  17  20
ATOM     20  O3  UNL     1      12.500 -15.261   0.696  0.00  0.00    -0.262 OA
ATOM     21  H3  UNL     1      12.236 -16.209   0.578  0.00  0.00    +0.247 HD
ENDBRANCH  17  20
ENDBRANCH   4  17
TORSDOF 4
ENDMDL
MODEL 4
REMARK minimizedAffinity -5.65215254
REMARK minimizedRMSD -1
REMARK  Name = /home/tchapet/Post-Doc/ARTICLES-DOSSIERS-DES-ARTICLES-EN-REDACTION/NOUVELS-AXES-DE-RECHERCHE-A-REGARDER-URGEMMENT/ARTICLES-EN-REDACTIONS/ARTICLE_MVOTO/Paper2_Sensors_ActuatorsB/docking_rerun/ligands/4550.pdb
REMARK  4 active torsions:
REMARK  status: ('A' for Active; 'I' for Inactive)
REMARK    1  A    between atoms: N1_2  and  C1_3
REMARK    2  A    between atoms: C4_6  and  N2_7
REMARK    3  A    between atoms: N2_7  and  O2_8
REMARK    4  A    between atoms: N2_7  and  O3_9
REMARK                            x       y       z     vdW  Elec       q    Type
REMARK                         _______ _______ _______ _____ _____    ______ ____
ROOT
ATOM      1  C1  UNL     1      31.367 -17.904  11.512  0.00  0.00    +0.180 C 
ATOM      2  C2  UNL     1      30.363 -17.300  10.903  0.00  0.00    +0.034 A 
ATOM      3  C3  UNL     1      29.205 -16.762  11.450  0.00  0.00    +0.043 A 
ATOM      4  C4  UNL     1      28.260 -16.162  10.595  0.00  0.00    +0.099 A 
ATOM      5  C5  UNL     1      28.524 -16.075   9.189  0.00  0.00    -0.014 A 
ATOM      6  C6  UNL     1      29.708 -16.666   8.653  0.00  0.00    -0.018 A 
ATOM      7  C7  UNL     1      30.615 -17.260   9.541  0.00  0.00    +0.070 A 
ATOM      8  N3  UNL     1      31.747 -17.804   9.206  0.00  0.00    -0.174 NA
ATOM      9  C8  UNL     1      32.288 -18.247  10.447  0.00  0.00    +0.290 C 
ATOM     10  O4  UNL     1      33.392 -18.837  10.569  0.00  0.00    -0.266 OA
ATOM     11  C9  UNL     1      30.064 -16.570   7.184  0.00  0.00    +0.037 C 
ATOM     12  C10 UNL     1      28.870 -16.194   6.307  0.00  0.00    +0.005 C 
ATOM     13  C11 UNL     1      28.129 -15.008   6.912  0.00  0.00    +0.005 C 
ATOM     14  C12 UNL     1      27.531 -15.392   8.266  0.00  0.00    +0.038 C 
ENDROOT
BRANCH   1  16
ATOM     15  O1  UNL     1      31.984 -17.286  13.671  0.00  0.00    -0.143 OA
ATOM     16  N1  UNL     1      31.496 -18.148  12.913  0.00  0.00    -0.025 NA
ENDBRANCH   1  16
BRANCH   4  17
ATOM     17  N2  UNL     1      27.044 -15.648  11.173  0.00  0.00    -0.128 N 
BRANCH  17  18
ATOM     18  O2  UNL     1      25.838 -16.169  10.842  0.00  0.00    -0.262 OA
ATOM     19  H2  UNL     1      25.697 -16.911  11.484  0.00  0.00    +0.247 HD
ENDBRANCH  17  18
BRANCH  17  20
ATOM     20  O3  UNL     1      27.096 -14.663  12.103  0.00  0.00    -0.262 OA
ATOM     21  H3  UNL     1      27.120 -15.134  12.975  0.00  0.00    +0.247 HD
ENDBRANCH  17  20
ENDBRANCH   4  17
TORSDOF 4
ENDMDL
MODEL 5
REMARK minimizedAffinity -5.64776897
REMARK minimizedRMSD -1
REMARK  Name = /home/tchapet/Post-Doc/ARTICLES-DOSSIERS-DES-ARTICLES-EN-REDACTION/NOUVELS-AXES-DE-RECHERCHE-A-REGARDER-URGEMMENT/ARTICLES-EN-REDACTIONS/ARTICLE_MVOTO/Paper2_Sensors_ActuatorsB/docking_rerun/ligands/4550.pdb
REMARK  4 active torsions:
REMARK  status: ('A' for Active; 'I' for Inactive)
REMARK    1  A    between atoms: N1_2  and  C1_3
REMARK    2  A    between atoms: C4_6  and  N2_7
REMARK    3  A    between atoms: N2_7  and  O2_8
REMARK    4  A    between atoms: N2_7  and  O3_9
REMARK                            x       y       z     vdW  Elec       q    Type
REMARK                         _______ _______ _______ _____ _____    ______ ____
ROOT
ATOM      1  C1  UNL     1      29.444 -15.292   7.105  0.00  0.00    +0.180 C 
ATOM      2  C2  UNL     1      29.233 -15.556   8.381  0.00  0.00    +0.034 A 
ATOM      3  C3  UNL     1      28.071 -15.399   9.125  0.00  0.00    +0.043 A 
ATOM      4  C4  UNL     1      28.081 -15.749  10.490  0.00  0.00    +0.099 A 
ATOM      5  C5  UNL     1      29.267 -16.299  11.076  0.00  0.00    -0.014 A 
ATOM      6  C6  UNL     1      30.455 -16.418  10.293  0.00  0.00    -0.018 A 
ATOM      7  C7  UNL     1      30.400 -16.050   8.943  0.00  0.00    +0.070 A 
ATOM      8  N3  UNL     1      31.386 -16.135   8.100  0.00  0.00    -0.174 NA
ATOM      9  C8  UNL     1      30.829 -15.655   6.881  0.00  0.00    +0.290 C 
ATOM     10  O4  UNL     1      31.461 -15.569   5.796  0.00  0.00    -0.266 OA
ATOM     11  C9  UNL     1      31.726 -17.031  10.843  0.00  0.00    +0.037 C 
ATOM     12  C10 UNL     1      31.747 -17.087  12.370  0.00  0.00    +0.005 C 
ATOM     13  C11 UNL     1      30.431 -17.654  12.891  0.00  0.00    +0.005 C 
ATOM     14  C12 UNL     1      29.274 -16.718  12.535  0.00  0.00    +0.038 C 
ENDROOT
BRANCH   1  16
ATOM     15  O1  UNL     1      28.396 -15.253   5.025  0.00  0.00    -0.143 OA
ATOM     16  N1  UNL     1      28.498 -14.771   6.170  0.00  0.00    -0.025 NA
ENDBRANCH   1  16
BRANCH   4  17
ATOM     17  N2  UNL     1      26.880 -15.539  11.259  0.00  0.00    -0.128 N 
BRANCH  17  18
ATOM     18  O2  UNL     1      25.745 -16.227  10.985  0.00  0.00    -0.262 OA
ATOM     19  H2  UNL     1      25.813 -17.055  11.527  0.00  0.00    +0.247 HD
ENDBRANCH  17  18
BRANCH  17  20
ATOM     20  O3  UNL     1      26.887 -14.682  12.310  0.00  0.00    -0.262 OA
ATOM     21  H3  UNL     1      27.100 -15.244  13.098  0.00  0.00    +0.247 HD
ENDBRANCH  17  20
ENDBRANCH   4  17
TORSDOF 4
ENDMDL
MODEL 6
REMARK minimizedAffinity -5.42303467
REMARK minimizedRMSD -1
REMARK  Name = /home/tchapet/Post-Doc/ARTICLES-DOSSIERS-DES-ARTICLES-EN-REDACTION/NOUVELS-AXES-DE-RECHERCHE-A-REGARDER-URGEMMENT/ARTICLES-EN-REDACTIONS/ARTICLE_MVOTO/Paper2_Sensors_ActuatorsB/docking_rerun/ligands/4550.pdb
REMARK  4 active torsions:
REMARK  status: ('A' for Active; 'I' for Inactive)
REMARK    1  A    between atoms: N1_2  and  C1_3
REMARK    2  A    between atoms: C4_6  and  N2_7
REMARK    3  A    between atoms: N2_7  and  O2_8
REMARK    4  A    between atoms: N2_7  and  O3_9
REMARK                            x       y       z     vdW  Elec       q    Type
REMARK                         _______ _______ _______ _____ _____    ______ ____
ROOT
ATOM      1  C1  UNL     1       2.836  -1.893   1.028  0.00  0.00    +0.180 C 
ATOM      2  C2  UNL     1       1.558  -1.822   1.354  0.00  0.00    +0.034 A 
ATOM      3  C3  UNL     1       0.676  -0.761   1.202  0.00  0.00    +0.043 A 
ATOM      4  C4  UNL     1      -0.658  -0.915   1.630  0.00  0.00    +0.099 A 
ATOM      5  C5  UNL     1      -1.092  -2.169   2.171  0.00  0.00    -0.014 A 
ATOM      6  C6  UNL     1      -0.153  -3.230   2.343  0.00  0.00    -0.018 A 
ATOM      7  C7  UNL     1       1.164  -3.028   1.911  0.00  0.00    +0.070 A 
ATOM      8  N3  UNL     1       2.117  -3.910   1.970  0.00  0.00    -0.174 NA
ATOM      9  C8  UNL     1       3.238  -3.232   1.410  0.00  0.00    +0.290 C 
ATOM     10  O4  UNL     1       4.382  -3.739   1.280  0.00  0.00    -0.266 OA
ATOM     11  C9  UNL     1      -0.561  -4.591   2.868  0.00  0.00    +0.037 C 
ATOM     12  C10 UNL     1      -1.910  -4.572   3.583  0.00  0.00    +0.005 C 
ATOM     13  C11 UNL     1      -2.939  -3.826   2.742  0.00  0.00    +0.005 C 
ATOM     14  C12 UNL     1      -2.538  -2.357   2.595  0.00  0.00    +0.038 C 
ENDROOT
BRANCH   1  16
ATOM     15  O1  UNL     1       3.883  -0.887  -0.793  0.00  0.00    -0.143 OA
ATOM     16  N1  UNL     1       3.625  -0.865   0.427  0.00  0.00    -0.025 NA
ENDBRANCH   1  16
BRANCH   4  17
ATOM     17  N2  UNL     1      -1.550   0.210   1.506  0.00  0.00    -0.128 N 
BRANCH  17  18
ATOM     18  O2  UNL     1      -2.317   0.376   0.401  0.00  0.00    -0.262 OA
ATOM     19  H2  UNL     1      -3.152  -0.123   0.593  0.00  0.00    +0.247 HD
ENDBRANCH  17  18
BRANCH  17  20
ATOM     20  O3  UNL     1      -1.675   1.094   2.526  0.00  0.00    -0.262 OA
ATOM     21  H3  UNL     1      -2.435   0.757   3.067  0.00  0.00    +0.247 HD
ENDBRANCH  17  20
ENDBRANCH   4  17
TORSDOF 4
ENDMDL
MODEL 7
REMARK minimizedAffinity -5.40845251
REMARK minimizedRMSD -1
REMARK  Name = /home/tchapet/Post-Doc/ARTICLES-DOSSIERS-DES-ARTICLES-EN-REDACTION/NOUVELS-AXES-DE-RECHERCHE-A-REGARDER-URGEMMENT/ARTICLES-EN-REDACTIONS/ARTICLE_MVOTO/Paper2_Sensors_ActuatorsB/docking_rerun/ligands/4550.pdb
REMARK  4 active torsions:
REMARK  status: ('A' for Active; 'I' for Inactive)
REMARK    1  A    between atoms: N1_2  and  C1_3
REMARK    2  A    between atoms: C4_6  and  N2_7
REMARK    3  A    between atoms: N2_7  and  O2_8
REMARK    4  A    between atoms: N2_7  and  O3_9
REMARK                            x       y       z     vdW  Elec       q    Type
REMARK                         _______ _______ _______ _____ _____    ______ ____
ROOT
ATOM      1  C1  UNL     1      -1.310  -2.102   2.288  0.00  0.00    +0.180 C 
ATOM      2  C2  UNL     1      -0.330  -2.979   2.406  0.00  0.00    +0.034 A 
ATOM      3  C3  UNL     1      -0.341  -4.224   3.020  0.00  0.00    +0.043 A 
ATOM      4  C4  UNL     1       0.839  -4.994   3.025  0.00  0.00    +0.099 A 
ATOM      5  C5  UNL     1       2.012  -4.505   2.365  0.00  0.00    -0.014 A 
ATOM      6  C6  UNL     1       2.001  -3.206   1.770  0.00  0.00    -0.018 A 
ATOM      7  C7  UNL     1       0.808  -2.474   1.797  0.00  0.00    +0.070 A 
ATOM      8  N3  UNL     1       0.636  -1.299   1.268  0.00  0.00    -0.174 NA
ATOM      9  C8  UNL     1      -0.726  -0.997   1.555  0.00  0.00    +0.290 C 
ATOM     10  O4  UNL     1      -1.304   0.067   1.213  0.00  0.00    -0.266 OA
ATOM     11  C9  UNL     1       3.195  -2.652   1.021  0.00  0.00    +0.037 C 
ATOM     12  C10 UNL     1       4.493  -3.393   1.340  0.00  0.00    +0.005 C 
ATOM     13  C11 UNL     1       4.271  -4.898   1.257  0.00  0.00    +0.005 C 
ATOM     14  C12 UNL     1       3.276  -5.346   2.329  0.00  0.00    +0.038 C 
ENDROOT
BRANCH   1  16
ATOM     15  O1  UNL     1      -3.591  -2.475   2.001  0.00  0.00    -0.143 OA
ATOM     16  N1  UNL     1      -2.645  -2.238   2.778  0.00  0.00    -0.025 NA
ENDBRANCH   1  16
BRANCH   4  17
ATOM     17  N2  UNL     1       0.824  -6.265   3.705  0.00  0.00    -0.128 N 
BRANCH  17  18
ATOM     18  O2  UNL     1       0.922  -6.337   5.055  0.00  0.00    -0.262 OA
ATOM     19  H2  UNL     1      -0.013  -6.279   5.381  0.00  0.00    +0.247 HD
ENDBRANCH  17  18
BRANCH  17  20
ATOM     20  O3  UNL     1       0.656  -7.411   3.000  0.00  0.00    -0.262 OA
ATOM     21  H3  UNL     1      -0.322  -7.577   3.009  0.00  0.00    +0.247 HD
ENDBRANCH  17  20
ENDBRANCH   4  17
TORSDOF 4
ENDMDL
MODEL 8
REMARK minimizedAffinity -5.39378643
REMARK minimizedRMSD -1
REMARK  Name = /home/tchapet/Post-Doc/ARTICLES-DOSSIERS-DES-ARTICLES-EN-REDACTION/NOUVELS-AXES-DE-RECHERCHE-A-REGARDER-URGEMMENT/ARTICLES-EN-REDACTIONS/ARTICLE_MVOTO/Paper2_Sensors_ActuatorsB/docking_rerun/ligands/4550.pdb
REMARK  4 active torsions:
REMARK  status: ('A' for Active; 'I' for Inactive)
REMARK    1  A    between atoms: N1_2  and  C1_3
REMARK    2  A    between atoms: C4_6  and  N2_7
REMARK    3  A    between atoms: N2_7  and  O2_8
REMARK    4  A    between atoms: N2_7  and  O3_9
REMARK                            x       y       z     vdW  Elec       q    Type
REMARK                         _______ _______ _______ _____ _____    ______ ____
ROOT
ATOM      1  C1  UNL     1       4.774  -2.215   0.283  0.00  0.00    +0.180 C 
ATOM      2  C2  UNL     1       3.568  -2.030   0.788  0.00  0.00    +0.034 A 
ATOM      3  C3  UNL     1       2.854  -0.847   0.931  0.00  0.00    +0.043 A 
ATOM      4  C4  UNL     1       1.568  -0.892   1.507  0.00  0.00    +0.099 A 
ATOM      5  C5  UNL     1       1.003  -2.150   1.892  0.00  0.00    -0.014 A 
ATOM      6  C6  UNL     1       1.775  -3.344   1.761  0.00  0.00    -0.018 A 
ATOM      7  C7  UNL     1       3.051  -3.251   1.191  0.00  0.00    +0.070 A 
ATOM      8  N3  UNL     1       3.852  -4.251   0.976  0.00  0.00    -0.174 NA
ATOM      9  C8  UNL     1       4.997  -3.644   0.386  0.00  0.00    +0.290 C 
ATOM     10  O4  UNL     1       6.025  -4.271   0.020  0.00  0.00    -0.266 OA
ATOM     11  C9  UNL     1       1.216  -4.708   2.110  0.00  0.00    +0.037 C 
ATOM     12  C10 UNL     1      -0.025  -4.633   2.997  0.00  0.00    +0.005 C 
ATOM     13  C11 UNL     1      -1.009  -3.613   2.435  0.00  0.00    +0.005 C 
ATOM     14  C12 UNL     1      -0.398  -2.212   2.474  0.00  0.00    +0.038 C 
ENDROOT
BRANCH   1  16
ATOM     15  O1  UNL     1       6.749  -0.981   0.284  0.00  0.00    -0.143 OA
ATOM     16  N1  UNL     1       5.645  -1.214  -0.246  0.00  0.00    -0.025 NA
ENDBRANCH   1  16
BRANCH   4  17
ATOM     17  N2  UNL     1       0.858   0.349   1.690  0.00  0.00    -0.128 N 
BRANCH  17  18
ATOM     18  O2  UNL     1       1.346   1.322   2.498  0.00  0.00    -0.262 OA
ATOM     19  H2  UNL     1       1.927   1.871   1.911  0.00  0.00    +0.247 HD
ENDBRANCH  17  18
BRANCH  17  20
ATOM     20  O3  UNL     1      -0.291   0.582   1.009  0.00  0.00    -0.262 OA
ATOM     21  H3  UNL     1      -0.009   1.052   0.183  0.00  0.00    +0.247 HD
ENDBRANCH  17  20
ENDBRANCH   4  17
TORSDOF 4
ENDMDL
MODEL 9
REMARK minimizedAffinity -5.3923502
REMARK minimizedRMSD -1
REMARK  Name = /home/tchapet/Post-Doc/ARTICLES-DOSSIERS-DES-ARTICLES-EN-REDACTION/NOUVELS-AXES-DE-RECHERCHE-A-REGARDER-URGEMMENT/ARTICLES-EN-REDACTIONS/ARTICLE_MVOTO/Paper2_Sensors_ActuatorsB/docking_rerun/ligands/4550.pdb
REMARK  4 active torsions:
REMARK  status: ('A' for Active; 'I' for Inactive)
REMARK    1  A    between atoms: N1_2  and  C1_3
REMARK    2  A    between atoms: C4_6  and  N2_7
REMARK    3  A    between atoms: N2_7  and  O2_8
REMARK    4  A    between atoms: N2_7  and  O3_9
REMARK                            x       y       z     vdW  Elec       q    Type
REMARK                         _______ _______ _______ _____ _____    ______ ____
ROOT
ATOM      1  C1  UNL     1       7.477 -11.895  28.434  0.00  0.00    +0.180 C 
ATOM      2  C2  UNL     1       6.908 -12.873  27.752  0.00  0.00    +0.034 A 
ATOM      3  C3  UNL     1       5.558 -13.167  27.609  0.00  0.00    +0.043 A 
ATOM      4  C4  UNL     1       5.181 -14.275  26.825  0.00  0.00    +0.099 A 
ATOM      5  C5  UNL     1       6.183 -15.051  26.156  0.00  0.00    -0.014 A 
ATOM      6  C6  UNL     1       7.563 -14.742  26.349  0.00  0.00    -0.018 A 
ATOM      7  C7  UNL     1       7.892 -13.636  27.143  0.00  0.00    +0.070 A 
ATOM      8  N3  UNL     1       9.098 -13.213  27.380  0.00  0.00    -0.174 NA
ATOM      9  C8  UNL     1       8.899 -12.079  28.218  0.00  0.00    +0.290 C 
ATOM     10  O4  UNL     1       9.827 -11.368  28.683  0.00  0.00    -0.266 OA
ATOM     11  C9  UNL     1       8.666 -15.496  25.635  0.00  0.00    +0.037 C 
ATOM     12  C10 UNL     1       8.201 -16.839  25.076  0.00  0.00    +0.005 C 
ATOM     13  C11 UNL     1       6.889 -16.666  24.319  0.00  0.00    +0.005 C 
ATOM     14  C12 UNL     1       5.781 -16.221  25.276  0.00  0.00    +0.038 C 
ENDROOT
BRANCH   1  16
ATOM     15  O1  UNL     1       6.325  -9.883  28.650  0.00  0.00    -0.143 OA
ATOM     16  N1  UNL     1       6.816 -10.888  29.201  0.00  0.00    -0.025 NA
ENDBRANCH   1  16
BRANCH   4  17
ATOM     17  N2  UNL     1       3.779 -14.594  26.722  0.00  0.00    -0.128 N 
BRANCH  17  18
ATOM     18  O2  UNL     1       3.029 -14.127  25.694  0.00  0.00    -0.262 OA
ATOM     19  H2  UNL     1       3.121 -14.810  24.982  0.00  0.00    +0.247 HD
ENDBRANCH  17  18
BRANCH  17  20
ATOM     20  O3  UNL     1       3.199 -15.417  27.632  0.00  0.00    -0.262 OA
ATOM     21  H3  UNL     1       3.269 -16.324  27.238  0.00  0.00    +0.247 HD
ENDBRANCH  17  20
ENDBRANCH   4  17
TORSDOF 4
ENDMDL
