MODEL 1
REMARK minimizedAffinity -5.74219942
REMARK minimizedRMSD -1
REMARK  Name = /home/tchapet/Post-Doc/ARTICLES-DOSSIERS-DES-ARTICLES-EN-REDACTION/NOUVELS-AXES-DE-RECHERCHE-A-REGARDER-URGEMMENT/ARTICLES-EN-REDACTIONS/ARTICLE_MVOTO/Paper2_Sensors_ActuatorsB/docking_rerun/ligands/4550.pdb
REMARK  4 active torsions:
REMARK  status: ('A' for Active; 'I' for Inactive)
REMARK    1  A    between atoms: N1_2  and  C1_3
REMARK    2  A    between atoms: C4_6  and  N2_7
REMARK    3  A    between atoms: N2_7  and  O2_8
REMARK    4  A    between atoms: N2_7  and  O3_9
REMARK                            x       y       z     vdW  Elec       q    Type
REMARK                         _______ _______ _______ _____ _____    ______ ____
ROOT
ATOM      1  C1  UNL     1      18.095  -4.460  10.941  0.00  0.00    +0.180 C 
ATOM      2  C2  UNL     1      17.670  -3.634  10.003  0.00  0.00    +0.034 A 
ATOM      3  C3  UNL     1      16.490  -3.675   9.272  0.00  0.00    +0.043 A 
ATOM      4  C4  UNL     1      16.248  -2.675   8.309  0.00  0.00    +0.099 A 
ATOM      5  C5  UNL     1      17.194  -1.614   8.130  0.00  0.00    -0.014 A 
ATOM      6  C6  UNL     1      18.412  -1.617   8.875  0.00  0.00    -0.018 A 
ATOM      7  C7  UNL     1      18.613  -2.636   9.815  0.00  0.00    +0.070 A 
ATOM      8  N3  UNL     1      19.652  -2.750  10.588  0.00  0.00    -0.174 NA
ATOM      9  C8  UNL     1      19.378  -3.923  11.348  0.00  0.00    +0.290 C 
ATOM     10  O4  UNL     1      20.145  -4.394  12.227  0.00  0.00    -0.266 OA
ATOM     11  C9  UNL     1      19.429  -0.501   8.762  0.00  0.00    +0.037 C 
ATOM     12  C10 UNL     1      19.244   0.347   7.504  0.00  0.00    +0.005 C 
ATOM     13  C11 UNL     1      17.779   0.737   7.347  0.00  0.00    +0.005 C 
ATOM     14  C12 UNL     1      16.921  -0.509   7.125  0.00  0.00    +0.038 C 
ENDROOT
BRANCH   1  16
ATOM     15  O1  UNL     1      17.926  -6.752  11.321  0.00  0.00    -0.143 OA
ATOM     16  N1  UNL     1      17.419  -5.618  11.433  0.00  0.00    -0.025 NA
ENDBRANCH   1  16
BRANCH   4  17
ATOM     17  N2  UNL     1      15.040  -2.756   7.528  0.00  0.00    -0.128 N 
BRANCH  17  18
ATOM     18  O2  UNL     1      15.015  -3.418   6.345  0.00  0.00    -0.262 OA
ATOM     19  H2  UNL     1      14.791  -4.354   6.582  0.00  0.00    +0.247 HD
ENDBRANCH  17  18
BRANCH  17  20
ATOM     20  O3  UNL     1      13.889  -2.213   7.996  0.00  0.00    -0.262 OA
ATOM     21  H3  UNL     1      13.434  -2.950   8.478  0.00  0.00    +0.247 HD
ENDBRANCH  17  20
ENDBRANCH   4  17
TORSDOF 4
ENDMDL
MODEL 2
REMARK minimizedAffinity -5.70277262
REMARK minimizedRMSD -1
REMARK  Name = /home/tchapet/Post-Doc/ARTICLES-DOSSIERS-DES-ARTICLES-EN-REDACTION/NOUVELS-AXES-DE-RECHERCHE-A-REGARDER-URGEMMENT/ARTICLES-EN-REDACTIONS/ARTICLE_MVOTO/Paper2_Sensors_ActuatorsB/docking_rerun/ligands/4550.pdb
REMARK  4 active torsions:
REMARK  status: ('A' for Active; 'I' for Inactive)
REMARK    1  A    between atoms: N1_2  and  C1_3
REMARK    2  A    between atoms: C4_6  and  N2_7
REMARK    3  A    between atoms: N2_7  and  O2_8
REMARK    4  A    between atoms: N2_7  and  O3_9
REMARK                            x       y       z     vdW  Elec       q    Type
REMARK                         _______ _______ _______ _____ _____    ______ ____
ROOT
ATOM      1  C1  UNL     1       7.543  17.420  19.564  0.00  0.00    +0.180 C 
ATOM      2  C2  UNL     1       7.009  16.213  19.598  0.00  0.00    +0.034 A 
ATOM      3  C3  UNL     1       6.295  15.602  20.621  0.00  0.00    +0.043 A 
ATOM      4  C4  UNL     1       5.818  14.290  20.431  0.00  0.00    +0.099 A 
ATOM      5  C5  UNL     1       6.034  13.626  19.180  0.00  0.00    -0.014 A 
ATOM      6  C6  UNL     1       6.799  14.269  18.160  0.00  0.00    -0.018 A 
ATOM      7  C7  UNL     1       7.260  15.570  18.396  0.00  0.00    +0.070 A 
ATOM      8  N3  UNL     1       7.936  16.293  17.553  0.00  0.00    -0.174 NA
ATOM      9  C8  UNL     1       8.154  17.513  18.254  0.00  0.00    +0.290 C 
ATOM     10  O4  UNL     1       8.781  18.498  17.785  0.00  0.00    -0.266 OA
ATOM     11  C9  UNL     1       7.024  13.638  16.802  0.00  0.00    +0.037 C 
ATOM     12  C10 UNL     1       6.754  12.134  16.793  0.00  0.00    +0.005 C 
ATOM     13  C11 UNL     1       5.423  11.837  17.474  0.00  0.00    +0.005 C 
ATOM     14  C12 UNL     1       5.486  12.229  18.952  0.00  0.00    +0.038 C 
ENDROOT
BRANCH   1  16
ATOM     15  O1  UNL     1       8.501  18.600  21.329  0.00  0.00    -0.143 OA
ATOM     16  N1  UNL     1       7.508  18.402  20.601  0.00  0.00    -0.025 NA
ENDBRANCH   1  16
BRANCH   4  17
ATOM     17  N2  UNL     1       5.117  13.653  21.518  0.00  0.00    -0.128 N 
BRANCH  17  18
ATOM     18  O2  UNL     1       5.606  13.690  22.782  0.00  0.00    -0.262 OA
ATOM     19  H2  UNL     1       5.232  14.519  23.175  0.00  0.00    +0.247 HD
ENDBRANCH  17  18
BRANCH  17  20
ATOM     20  O3  UNL     1       3.923  13.050  21.297  0.00  0.00    -0.262 OA
ATOM     21  H3  UNL     1       3.245  13.748  21.483  0.00  0.00    +0.247 HD
ENDBRANCH  17  20
ENDBRANCH   4  17
TORSDOF 4
ENDMDL
MODEL 3
REMARK minimizedAffinity -5.66637135
REMARK minimizedRMSD -1
REMARK  Name = /home/tchapet/Post-Doc/ARTICLES-DOSSIERS-DES-ARTICLES-EN-REDACTION/NOUVELS-AXES-DE-RECHERCHE-A-REGARDER-URGEMMENT/ARTICLES-EN-REDACTIONS/ARTICLE_MVOTO/Paper2_Sensors_ActuatorsB/docking_rerun/ligands/4550.pdb
REMARK  4 active torsions:
REMARK  status: ('A' for Active; 'I' for Inactive)
REMARK    1  A    between atoms: N1_2  and  C1_3
REMARK    2  A    between atoms: C4_6  and  N2_7
REMARK    3  A    between atoms: N2_7  and  O2_8
REMARK    4  A    between atoms: N2_7  and  O3_9
REMARK                            x       y       z     vdW  Elec       q    Type
REMARK                         _______ _______ _______ _____ _____    ______ ____
ROOT
ATOM      1  C1  UNL     1       7.686  17.573  20.943  0.00  0.00    +0.180 C 
ATOM      2  C2  UNL     1       7.475  16.578  20.100  0.00  0.00    +0.034 A 
ATOM      3  C3  UNL     1       8.128  16.290  18.908  0.00  0.00    +0.043 A 
ATOM      4  C4  UNL     1       7.725  15.163  18.164  0.00  0.00    +0.099 A 
ATOM      5  C5  UNL     1       6.687  14.312  18.665  0.00  0.00    -0.014 A 
ATOM      6  C6  UNL     1       6.014  14.653  19.877  0.00  0.00    -0.018 A 
ATOM      7  C7  UNL     1       6.443  15.787  20.579  0.00  0.00    +0.070 A 
ATOM      8  N3  UNL     1       5.953  16.201  21.709  0.00  0.00    -0.174 NA
ATOM      9  C8  UNL     1       6.720  17.365  22.002  0.00  0.00    +0.290 C 
ATOM     10  O4  UNL     1       6.562  18.080  23.026  0.00  0.00    -0.266 OA
ATOM     11  C9  UNL     1       4.941  13.771  20.480  0.00  0.00    +0.037 C 
ATOM     12  C10 UNL     1       4.362  12.772  19.479  0.00  0.00    +0.005 C 
ATOM     13  C11 UNL     1       5.489  12.066  18.733  0.00  0.00    +0.005 C 
ATOM     14  C12 UNL     1       6.276  13.072  17.891  0.00  0.00    +0.038 C 
ENDROOT
BRANCH   1  16
ATOM     15  O1  UNL     1       9.840  18.426  21.185  0.00  0.00    -0.143 OA
ATOM     16  N1  UNL     1       8.662  18.608  20.818  0.00  0.00    -0.025 NA
ENDBRANCH   1  16
BRANCH   4  17
ATOM     17  N2  UNL     1       8.381  14.903  16.908  0.00  0.00    -0.128 N 
BRANCH  17  18
ATOM     18  O2  UNL     1       7.875  15.376  15.743  0.00  0.00    -0.262 OA
ATOM     19  H2  UNL     1       8.278  16.276  15.638  0.00  0.00    +0.247 HD
ENDBRANCH  17  18
BRANCH  17  20
ATOM     20  O3  UNL     1       9.553  14.220  16.881  0.00  0.00    -0.262 OA
ATOM     21  H3  UNL     1      10.257  14.917  16.919  0.00  0.00    +0.247 HD
ENDBRANCH  17  20
ENDBRANCH   4  17
TORSDOF 4
ENDMDL
MODEL 4
REMARK minimizedAffinity -5.63523149
REMARK minimizedRMSD -1
REMARK  Name = /home/tchapet/Post-Doc/ARTICLES-DOSSIERS-DES-ARTICLES-EN-REDACTION/NOUVELS-AXES-DE-RECHERCHE-A-REGARDER-URGEMMENT/ARTICLES-EN-REDACTIONS/ARTICLE_MVOTO/Paper2_Sensors_ActuatorsB/docking_rerun/ligands/4550.pdb
REMARK  4 active torsions:
REMARK  status: ('A' for Active; 'I' for Inactive)
REMARK    1  A    between atoms: N1_2  and  C1_3
REMARK    2  A    between atoms: C4_6  and  N2_7
REMARK    3  A    between atoms: N2_7  and  O2_8
REMARK    4  A    between atoms: N2_7  and  O3_9
REMARK                            x       y       z     vdW  Elec       q    Type
REMARK                         _______ _______ _______ _____ _____    ______ ____
ROOT
ATOM      1  C1  UNL     1       5.197  13.958  20.364  0.00  0.00    +0.180 C 
ATOM      2  C2  UNL     1       6.135  14.640  19.733  0.00  0.00    +0.034 A 
ATOM      3  C3  UNL     1       6.788  14.335  18.546  0.00  0.00    +0.043 A 
ATOM      4  C4  UNL     1       7.769  15.221  18.059  0.00  0.00    +0.099 A 
ATOM      5  C5  UNL     1       8.046  16.436  18.766  0.00  0.00    -0.014 A 
ATOM      6  C6  UNL     1       7.381  16.706  20.000  0.00  0.00    -0.018 A 
ATOM      7  C7  UNL     1       6.419  15.792  20.450  0.00  0.00    +0.070 A 
ATOM      8  N3  UNL     1       5.710  15.919  21.531  0.00  0.00    -0.174 NA
ATOM      9  C8  UNL     1       4.892  14.754  21.536  0.00  0.00    +0.290 C 
ATOM     10  O4  UNL     1       4.047  14.484  22.428  0.00  0.00    -0.266 OA
ATOM     11  C9  UNL     1       7.599  17.992  20.770  0.00  0.00    +0.037 C 
ATOM     12  C10 UNL     1       8.872  18.726  20.352  0.00  0.00    +0.005 C 
ATOM     13  C11 UNL     1       8.950  18.816  18.833  0.00  0.00    +0.005 C 
ATOM     14  C12 UNL     1       9.072  17.417  18.226  0.00  0.00    +0.038 C 
ENDROOT
BRANCH   1  16
ATOM     15  O1  UNL     1       3.853  12.656  18.977  0.00  0.00    -0.143 OA
ATOM     16  N1  UNL     1       4.621  12.716  19.957  0.00  0.00    -0.025 NA
ENDBRANCH   1  16
BRANCH   4  17
ATOM     17  N2  UNL     1       8.469  14.869  16.849  0.00  0.00    -0.128 N 
BRANCH  17  18
ATOM     18  O2  UNL     1       7.993  15.237  15.634  0.00  0.00    -0.262 OA
ATOM     19  H2  UNL     1       8.387  16.131  15.468  0.00  0.00    +0.247 HD
ENDBRANCH  17  18
BRANCH  17  20
ATOM     20  O3  UNL     1       9.650  14.206  16.915  0.00  0.00    -0.262 OA
ATOM     21  H3  UNL     1      10.343  14.916  16.917  0.00  0.00    +0.247 HD
ENDBRANCH  17  20
ENDBRANCH   4  17
TORSDOF 4
ENDMDL
MODEL 5
REMARK minimizedAffinity -5.57572794
REMARK minimizedRMSD -1
REMARK  Name = /home/tchapet/Post-Doc/ARTICLES-DOSSIERS-DES-ARTICLES-EN-REDACTION/NOUVELS-AXES-DE-RECHERCHE-A-REGARDER-URGEMMENT/ARTICLES-EN-REDACTIONS/ARTICLE_MVOTO/Paper2_Sensors_ActuatorsB/docking_rerun/ligands/4550.pdb
REMARK  4 active torsions:
REMARK  status: ('A' for Active; 'I' for Inactive)
REMARK    1  A    between atoms: N1_2  and  C1_3
REMARK    2  A    between atoms: C4_6  and  N2_7
REMARK    3  A    between atoms: N2_7  and  O2_8
REMARK    4  A    between atoms: N2_7  and  O3_9
REMARK                            x       y       z     vdW  Elec       q    Type
REMARK                         _______ _______ _______ _____ _____    ______ ____
ROOT
ATOM      1  C1  UNL     1       7.628  16.234  17.385  0.00  0.00    +0.180 C 
ATOM      2  C2  UNL     1       6.906  15.538  18.245  0.00  0.00    +0.034 A 
ATOM      3  C3  UNL     1       6.201  14.359  18.041  0.00  0.00    +0.043 A 
ATOM      4  C4  UNL     1       5.492  13.793  19.118  0.00  0.00    +0.099 A 
ATOM      5  C5  UNL     1       5.542  14.411  20.409  0.00  0.00    -0.014 A 
ATOM      6  C6  UNL     1       6.249  15.640  20.579  0.00  0.00    -0.018 A 
ATOM      7  C7  UNL     1       6.933  16.171  19.478  0.00  0.00    +0.070 A 
ATOM      8  N3  UNL     1       7.645  17.258  19.488  0.00  0.00    -0.174 NA
ATOM      9  C8  UNL     1       8.127  17.358  18.151  0.00  0.00    +0.290 C 
ATOM     10  O4  UNL     1       8.866  18.285  17.731  0.00  0.00    -0.266 OA
ATOM     11  C9  UNL     1       6.375  16.319  21.927  0.00  0.00    +0.037 C 
ATOM     12  C10 UNL     1       5.344  15.825  22.940  0.00  0.00    +0.005 C 
ATOM     13  C11 UNL     1       5.299  14.301  22.942  0.00  0.00    +0.005 C 
ATOM     14  C12 UNL     1       4.815  13.785  21.586  0.00  0.00    +0.038 C 
ENDROOT
BRANCH   1  16
ATOM     15  O1  UNL     1       8.779  15.154  15.672  0.00  0.00    -0.143 OA
ATOM     16  N1  UNL     1       7.857  15.923  16.010  0.00  0.00    -0.025 NA
ENDBRANCH   1  16
BRANCH   4  17
ATOM     17  N2  UNL     1       4.730  12.593  18.880  0.00  0.00    -0.128 N 
BRANCH  17  18
ATOM     18  O2  UNL     1       3.374  12.616  18.866  0.00  0.00    -0.262 OA
ATOM     19  H2  UNL     1       3.134  12.822  17.926  0.00  0.00    +0.247 HD
ENDBRANCH  17  18
BRANCH  17  20
ATOM     20  O3  UNL     1       5.365  11.425  18.611  0.00  0.00    -0.262 OA
ATOM     21  H3  UNL     1       5.427  11.389  17.622  0.00  0.00    +0.247 HD
ENDBRANCH  17  20
ENDBRANCH   4  17
TORSDOF 4
ENDMDL
MODEL 6
REMARK minimizedAffinity -5.56094599
REMARK minimizedRMSD -1
REMARK  Name = /home/tchapet/Post-Doc/ARTICLES-DOSSIERS-DES-ARTICLES-EN-REDACTION/NOUVELS-AXES-DE-RECHERCHE-A-REGARDER-URGEMMENT/ARTICLES-EN-REDACTIONS/ARTICLE_MVOTO/Paper2_Sensors_ActuatorsB/docking_rerun/ligands/4550.pdb
REMARK  4 active torsions:
REMARK  status: ('A' for Active; 'I' for Inactive)
REMARK    1  A    between atoms: N1_2  and  C1_3
REMARK    2  A    between atoms: C4_6  and  N2_7
REMARK    3  A    between atoms: N2_7  and  O2_8
REMARK    4  A    between atoms: N2_7  and  O3_9
REMARK                            x       y       z     vdW  Elec       q    Type
REMARK                         _______ _______ _______ _____ _____    ______ ____
ROOT
ATOM      1  C1  UNL     1       6.416  13.282  17.341  0.00  0.00    +0.180 C 
ATOM      2  C2  UNL     1       6.539  14.135  18.342  0.00  0.00    +0.034 A 
ATOM      3  C3  UNL     1       7.253  15.325  18.392  0.00  0.00    +0.043 A 
ATOM      4  C4  UNL     1       7.241  16.078  19.583  0.00  0.00    +0.099 A 
ATOM      5  C5  UNL     1       6.463  15.633  20.700  0.00  0.00    -0.014 A 
ATOM      6  C6  UNL     1       5.765  14.390  20.628  0.00  0.00    -0.018 A 
ATOM      7  C7  UNL     1       5.812  13.671  19.427  0.00  0.00    +0.070 A 
ATOM      8  N3  UNL     1       5.202  12.546  19.200  0.00  0.00    -0.174 NA
ATOM      9  C8  UNL     1       5.556  12.236  17.856  0.00  0.00    +0.290 C 
ATOM     10  O4  UNL     1       5.168  11.211  17.238  0.00  0.00    -0.266 OA
ATOM     11  C9  UNL     1       4.891  13.888  21.758  0.00  0.00    +0.037 C 
ATOM     12  C10 UNL     1       5.180  14.585  23.087  0.00  0.00    +0.005 C 
ATOM     13  C11 UNL     1       5.238  16.095  22.885  0.00  0.00    +0.005 C 
ATOM     14  C12 UNL     1       6.410  16.461  21.972  0.00  0.00    +0.038 C 
ENDROOT
BRANCH   1  16
ATOM     15  O1  UNL     1       6.298  13.446  15.021  0.00  0.00    -0.143 OA
ATOM     16  N1  UNL     1       7.007  13.391  16.045  0.00  0.00    -0.025 NA
ENDBRANCH   1  16
BRANCH   4  17
ATOM     17  N2  UNL     1       8.023  17.288  19.635  0.00  0.00    -0.128 N 
BRANCH  17  18
ATOM     18  O2  UNL     1       9.320  17.266  20.027  0.00  0.00    -0.262 OA
ATOM     19  H2  UNL     1       9.834  17.102  19.196  0.00  0.00    +0.247 HD
ENDBRANCH  17  18
BRANCH  17  20
ATOM     20  O3  UNL     1       7.481  18.466  19.236  0.00  0.00    -0.262 OA
ATOM     21  H3  UNL     1       7.718  18.546  18.277  0.00  0.00    +0.247 HD
ENDBRANCH  17  20
ENDBRANCH   4  17
TORSDOF 4
ENDMDL
MODEL 7
REMARK minimizedAffinity -5.5561738
REMARK minimizedRMSD -1
REMARK  Name = /home/tchapet/Post-Doc/ARTICLES-DOSSIERS-DES-ARTICLES-EN-REDACTION/NOUVELS-AXES-DE-RECHERCHE-A-REGARDER-URGEMMENT/ARTICLES-EN-REDACTIONS/ARTICLE_MVOTO/Paper2_Sensors_ActuatorsB/docking_rerun/ligands/4550.pdb
REMARK  4 active torsions:
REMARK  status: ('A' for Active; 'I' for Inactive)
REMARK    1  A    between atoms: N1_2  and  C1_3
REMARK    2  A    between atoms: C4_6  and  N2_7
REMARK    3  A    between atoms: N2_7  and  O2_8
REMARK    4  A    between atoms: N2_7  and  O3_9
REMARK                            x       y       z     vdW  Elec       q    Type
REMARK                         _______ _______ _______ _____ _____    ______ ____
ROOT
ATOM      1  C1  UNL     1       6.120  15.970  21.604  0.00  0.00    +0.180 C 
ATOM      2  C2  UNL     1       6.383  15.401  20.441  0.00  0.00    +0.034 A 
ATOM      3  C3  UNL     1       7.396  15.692  19.536  0.00  0.00    +0.043 A 
ATOM      4  C4  UNL     1       7.481  14.945  18.344  0.00  0.00    +0.099 A 
ATOM      5  C5  UNL     1       6.557  13.877  18.104  0.00  0.00    -0.014 A 
ATOM      6  C6  UNL     1       5.508  13.624  19.039  0.00  0.00    -0.018 A 
ATOM      7  C7  UNL     1       5.458  14.397  20.206  0.00  0.00    +0.070 A 
ATOM      8  N3  UNL     1       4.586  14.260  21.160  0.00  0.00    -0.174 NA
ATOM      9  C8  UNL     1       4.961  15.258  22.104  0.00  0.00    +0.290 C 
ATOM     10  O4  UNL     1       4.364  15.467  23.192  0.00  0.00    -0.266 OA
ATOM     11  C9  UNL     1       4.528  12.483  18.863  0.00  0.00    +0.037 C 
ATOM     12  C10 UNL     1       4.495  11.944  17.433  0.00  0.00    +0.005 C 
ATOM     13  C11 UNL     1       5.914  11.712  16.928  0.00  0.00    +0.005 C 
ATOM     14  C12 UNL     1       6.668  13.040  16.842  0.00  0.00    +0.038 C 
ENDROOT
BRANCH   1  16
ATOM     15  O1  UNL     1       7.787  16.819  22.991  0.00  0.00    -0.143 OA
ATOM     16  N1  UNL     1       6.838  17.043  22.214  0.00  0.00    -0.025 NA
ENDBRANCH   1  16
BRANCH   4  17
ATOM     17  N2  UNL     1       8.510  15.288  17.395  0.00  0.00    -0.128 N 
BRANCH  17  18
ATOM     18  O2  UNL     1       9.637  14.541  17.285  0.00  0.00    -0.262 OA
ATOM     19  H2  UNL     1       9.413  13.841  16.620  0.00  0.00    +0.247 HD
ENDBRANCH  17  18
BRANCH  17  20
ATOM     20  O3  UNL     1       8.339  16.339  16.555  0.00  0.00    -0.262 OA
ATOM     21  H3  UNL     1       7.939  15.950  15.736  0.00  0.00    +0.247 HD
ENDBRANCH  17  20
ENDBRANCH   4  17
TORSDOF 4
ENDMDL
MODEL 8
REMARK minimizedAffinity -5.54845476
REMARK minimizedRMSD -1
REMARK  Name = /home/tchapet/Post-Doc/ARTICLES-DOSSIERS-DES-ARTICLES-EN-REDACTION/NOUVELS-AXES-DE-RECHERCHE-A-REGARDER-URGEMMENT/ARTICLES-EN-REDACTIONS/ARTICLE_MVOTO/Paper2_Sensors_ActuatorsB/docking_rerun/ligands/4550.pdb
REMARK  4 active torsions:
REMARK  status: ('A' for Active; 'I' for Inactive)
REMARK    1  A    between atoms: N1_2  and  C1_3
REMARK    2  A    between atoms: C4_6  and  N2_7
REMARK    3  A    between atoms: N2_7  and  O2_8
REMARK    4  A    between atoms: N2_7  and  O3_9
REMARK                            x       y       z     vdW  Elec       q    Type
REMARK                         _______ _______ _______ _____ _____    ______ ____
ROOT
ATOM      1  C1  UNL     1       5.871  12.644  17.617  0.00  0.00    +0.180 C 
ATOM      2  C2  UNL     1       5.950  13.476  18.640  0.00  0.00    +0.034 A 
ATOM      3  C3  UNL     1       5.382  13.364  19.903  0.00  0.00    +0.043 A 
ATOM      4  C4  UNL     1       5.602  14.389  20.844  0.00  0.00    +0.099 A 
ATOM      5  C5  UNL     1       6.438  15.502  20.504  0.00  0.00    -0.014 A 
ATOM      6  C6  UNL     1       6.981  15.603  19.187  0.00  0.00    -0.018 A 
ATOM      7  C7  UNL     1       6.729  14.565  18.282  0.00  0.00    +0.070 A 
ATOM      8  N3  UNL     1       7.183  14.501  17.066  0.00  0.00    -0.174 NA
ATOM      9  C8  UNL     1       6.659  13.271  16.575  0.00  0.00    +0.290 C 
ATOM     10  O4  UNL     1       6.864  12.824  15.417  0.00  0.00    -0.266 OA
ATOM     11  C9  UNL     1       7.906  16.732  18.781  0.00  0.00    +0.037 C 
ATOM     12  C10 UNL     1       7.837  17.928  19.730  0.00  0.00    +0.005 C 
ATOM     13  C11 UNL     1       7.926  17.455  21.176  0.00  0.00    +0.005 C 
ATOM     14  C12 UNL     1       6.714  16.589  21.526  0.00  0.00    +0.038 C 
ENDROOT
BRANCH   1  16
ATOM     15  O1  UNL     1       4.192  11.246  16.811  0.00  0.00    -0.143 OA
ATOM     16  N1  UNL     1       5.165  11.403  17.575  0.00  0.00    -0.025 NA
ENDBRANCH   1  16
BRANCH   4  17
ATOM     17  N2  UNL     1       4.969  14.280  22.134  0.00  0.00    -0.128 N 
BRANCH  17  18
ATOM     18  O2  UNL     1       3.665  14.608  22.304  0.00  0.00    -0.262 OA
ATOM     19  H2  UNL     1       3.166  13.773  22.114  0.00  0.00    +0.247 HD
ENDBRANCH  17  18
BRANCH  17  20
ATOM     20  O3  UNL     1       5.663  13.792  23.193  0.00  0.00    -0.262 OA
ATOM     21  H3  UNL     1       5.473  12.819  23.197  0.00  0.00    +0.247 HD
ENDBRANCH  17  20
ENDBRANCH   4  17
TORSDOF 4
ENDMDL
MODEL 9
REMARK minimizedAffinity -5.3305459
REMARK minimizedRMSD -1
REMARK  Name = /home/tchapet/Post-Doc/ARTICLES-DOSSIERS-DES-ARTICLES-EN-REDACTION/NOUVELS-AXES-DE-RECHERCHE-A-REGARDER-URGEMMENT/ARTICLES-EN-REDACTIONS/ARTICLE_MVOTO/Paper2_Sensors_ActuatorsB/docking_rerun/ligands/4550.pdb
REMARK  4 active torsions:
REMARK  status: ('A' for Active; 'I' for Inactive)
REMARK    1  A    between atoms: N1_2  and  C1_3
REMARK    2  A    between atoms: C4_6  and  N2_7
REMARK    3  A    between atoms: N2_7  and  O2_8
REMARK    4  A    between atoms: N2_7  and  O3_9
REMARK                            x       y       z     vdW  Elec       q    Type
REMARK                         _______ _______ _______ _____ _____    ______ ____
ROOT
ATOM      1  C1  UNL     1       8.214  16.189  16.062  0.00  0.00    +0.180 C 
ATOM      2  C2  UNL     1       7.555  15.222  16.675  0.00  0.00    +0.034 A 
ATOM      3  C3  UNL     1       7.397  13.896  16.294  0.00  0.00    +0.043 A 
ATOM      4  C4  UNL     1       6.639  13.036  17.114  0.00  0.00    +0.099 A 
ATOM      5  C5  UNL     1       6.084  13.527  18.341  0.00  0.00    -0.014 A 
ATOM      6  C6  UNL     1       6.237  14.903  18.687  0.00  0.00    -0.018 A 
ATOM      7  C7  UNL     1       6.992  15.722  17.838  0.00  0.00    +0.070 A 
ATOM      8  N3  UNL     1       7.247  16.981  18.039  0.00  0.00    -0.174 NA
ATOM      9  C8  UNL     1       8.040  17.347  16.914  0.00  0.00    +0.290 C 
ATOM     10  O4  UNL     1       8.504  18.500  16.718  0.00  0.00    -0.266 OA
ATOM     11  C9  UNL     1       5.712  15.471  19.990  0.00  0.00    +0.037 C 
ATOM     12  C10 UNL     1       4.662  14.576  20.647  0.00  0.00    +0.005 C 
ATOM     13  C11 UNL     1       5.148  13.132  20.676  0.00  0.00    +0.005 C 
ATOM     14  C12 UNL     1       5.302  12.597  19.251  0.00  0.00    +0.038 C 
ENDROOT
BRANCH   1  16
ATOM     15  O1  UNL     1       8.629  16.790  13.850  0.00  0.00    -0.143 OA
ATOM     16  N1  UNL     1       8.936  16.088  14.834  0.00  0.00    -0.025 NA
ENDBRANCH   1  16
BRANCH   4  17
ATOM     17  N2  UNL     1       6.447  11.674  16.684  0.00  0.00    -0.128 N 
BRANCH  17  18
ATOM     18  O2  UNL     1       5.214  11.209  16.366  0.00  0.00    -0.262 OA
ATOM     19  H2  UNL     1       5.108  11.410  15.401  0.00  0.00    +0.247 HD
ENDBRANCH  17  18
BRANCH  17  20
ATOM     20  O3  UNL     1       7.513  10.849  16.541  0.00  0.00    -0.262 OA
ATOM     21  H3  UNL     1       7.782  10.941  15.591  0.00  0.00    +0.247 HD
ENDBRANCH  17  20
ENDBRANCH   4  17
TORSDOF 4
ENDMDL
