MODEL 1
REMARK minimizedAffinity -5.71874237
REMARK minimizedRMSD -1
REMARK  Name = /home/tchapet/Post-Doc/ARTICLES-DOSSIERS-DES-ARTICLES-EN-REDACTION/NOUVELS-AXES-DE-RECHERCHE-A-REGARDER-URGEMMENT/ARTICLES-EN-REDACTIONS/ARTICLE_MVOTO/Paper2_JCIM/docking_rerun/ligands/5081.pdb
REMARK  6 active torsions:
REMARK  status: ('A' for Active; 'I' for Inactive)
REMARK    1  A    between atoms: C1_1  and  C2_2
REMARK    2  A    between atoms: C2_2  and  O1_3
REMARK    3  A    between atoms: O1_3  and  C3_4
REMARK    4  A    between atoms: C3_4  and  C4_6
REMARK    5  A    between atoms: N3_12  and  C8_13
REMARK    6  A    between atoms: C14_20  and  N4_22
REMARK                            x       y       z     vdW  Elec       q    Type
REMARK                         _______ _______ _______ _____ _____    ______ ____
ROOT
ATOM      1  C4  UNL     1       6.800  17.990  23.577  0.00  0.00    +0.170 A 
ATOM      2  N1  UNL     1       5.484  17.899  23.866  0.00  0.00    -0.228 NA
ATOM      3  C5  UNL     1       5.030  16.898  23.083  0.00  0.00    +0.205 A 
ATOM      4  N2  UNL     1       5.998  16.365  22.309  0.00  0.00    -0.300 N 
ATOM      5  C6  UNL     1       7.122  17.027  22.628  0.00  0.00    +0.075 A 
ATOM      6  C7  UNL     1       8.429  16.744  21.962  0.00  0.00    +0.163 C 
ATOM      7  N3  UNL     1       8.315  17.116  20.554  0.00  0.00    -0.295 N 
ATOM      8  C8  UNL     1       9.089  18.246  20.030  0.00  0.00    +0.132 C 
ATOM      9  C9  UNL     1       7.432  16.393  19.668  0.00  0.00    +0.249 C 
ATOM     10  O3  UNL     1       7.415  16.694  18.442  0.00  0.00    -0.270 OA
ATOM     11  C10 UNL     1       6.562  15.272  20.129  0.00  0.00    +0.063 A 
ATOM     12  C11 UNL     1       5.861  15.284  21.368  0.00  0.00    +0.060 A 
ATOM     13  C12 UNL     1       5.005  14.215  21.683  0.00  0.00    +0.029 A 
ATOM     14  C13 UNL     1       4.838  13.146  20.803  0.00  0.00    +0.033 A 
ATOM     15  C14 UNL     1       5.522  13.126  19.579  0.00  0.00    +0.101 A 
ATOM     16  C15 UNL     1       6.370  14.187  19.250  0.00  0.00    +0.045 A 
ENDROOT
BRANCH  15  17
ATOM     17  N4  UNL     1       5.372  12.045  18.649  0.00  0.00    -0.072 NA
ATOM     18  N5  UNL     1       6.087  11.929  17.653  0.00  0.00    -0.162 NA
ATOM     19  N6  UNL     1       6.800  11.812  16.658  0.00  0.00    +0.068 NA
ENDBRANCH  15  17
BRANCH   1  20
ATOM     20  C3  UNL     1       7.667  19.009  24.195  0.00  0.00    +0.360 C 
ATOM     21  O2  UNL     1       7.682  20.194  23.769  0.00  0.00    -0.243 OA
BRANCH  20  22
ATOM     22  O1  UNL     1       8.472  18.639  25.279  0.00  0.00    -0.460 OA
BRANCH  22  24
ATOM     23  C1  UNL     1       7.602  18.870  27.535  0.00  0.00    +0.048 C 
ATOM     24  C2  UNL     1       8.569  19.400  26.483  0.00  0.00    +0.229 C 
ENDBRANCH  22  24
ENDBRANCH  20  22
ENDBRANCH   1  20
TORSDOF 4
ENDMDL
MODEL 2
REMARK minimizedAffinity -5.36861944
REMARK minimizedRMSD -1
REMARK  Name = /home/tchapet/Post-Doc/ARTICLES-DOSSIERS-DES-ARTICLES-EN-REDACTION/NOUVELS-AXES-DE-RECHERCHE-A-REGARDER-URGEMMENT/ARTICLES-EN-REDACTIONS/ARTICLE_MVOTO/Paper2_JCIM/docking_rerun/ligands/5081.pdb
REMARK  6 active torsions:
REMARK  status: ('A' for Active; 'I' for Inactive)
REMARK    1  A    between atoms: C1_1  and  C2_2
REMARK    2  A    between atoms: C2_2  and  O1_3
REMARK    3  A    between atoms: O1_3  and  C3_4
REMARK    4  A    between atoms: C3_4  and  C4_6
REMARK    5  A    between atoms: N3_12  and  C8_13
REMARK    6  A    between atoms: C14_20  and  N4_22
REMARK                            x       y       z     vdW  Elec       q    Type
REMARK                         _______ _______ _______ _____ _____    ______ ____
ROOT
ATOM      1  C4  UNL     1       6.328  13.150  15.205  0.00  0.00    +0.170 A 
ATOM      2  N1  UNL     1       6.515  11.892  15.657  0.00  0.00    -0.228 NA
ATOM      3  C5  UNL     1       6.320  11.974  16.989  0.00  0.00    +0.205 A 
ATOM      4  N2  UNL     1       6.029  13.227  17.396  0.00  0.00    -0.300 N 
ATOM      5  C6  UNL     1       6.006  13.973  16.279  0.00  0.00    +0.075 A 
ATOM      6  C7  UNL     1       5.741  15.443  16.309  0.00  0.00    +0.163 C 
ATOM      7  N3  UNL     1       6.842  16.092  17.018  0.00  0.00    -0.295 N 
ATOM      8  C8  UNL     1       7.757  16.980  16.294  0.00  0.00    +0.132 C 
ATOM      9  C9  UNL     1       7.053  15.856  18.428  0.00  0.00    +0.249 C 
ATOM     10  O3  UNL     1       7.967  16.492  19.024  0.00  0.00    -0.270 OA
ATOM     11  C10 UNL     1       6.210  14.921  19.229  0.00  0.00    +0.063 A 
ATOM     12  C11 UNL     1       5.758  13.663  18.741  0.00  0.00    +0.060 A 
ATOM     13  C12 UNL     1       5.032  12.816  19.595  0.00  0.00    +0.029 A 
ATOM     14  C13 UNL     1       4.746  13.194  20.907  0.00  0.00    +0.033 A 
ATOM     15  C14 UNL     1       5.189  14.430  21.397  0.00  0.00    +0.101 A 
ATOM     16  C15 UNL     1       5.920  15.278  20.560  0.00  0.00    +0.045 A 
ENDROOT
BRANCH  15  17
ATOM     17  N4  UNL     1       4.917  14.850  22.741  0.00  0.00    -0.072 NA
ATOM     18  N5  UNL     1       3.866  15.409  23.057  0.00  0.00    -0.162 NA
ATOM     19  N6  UNL     1       2.817  15.967  23.374  0.00  0.00    +0.068 NA
ENDBRANCH  15  17
BRANCH   1  20
ATOM     20  C3  UNL     1       6.497  13.505  13.785  0.00  0.00    +0.360 C 
ATOM     21  O2  UNL     1       5.776  12.982  12.895  0.00  0.00    -0.243 OA
BRANCH  20  22
ATOM     22  O1  UNL     1       7.472  14.448  13.438  0.00  0.00    -0.460 OA
BRANCH  22  24
ATOM     23  C1  UNL     1       8.508  16.206  12.123  0.00  0.00    +0.048 C 
ATOM     24  C2  UNL     1       7.207  15.589  12.623  0.00  0.00    +0.229 C 
ENDBRANCH  22  24
ENDBRANCH  20  22
ENDBRANCH   1  20
TORSDOF 4
ENDMDL
MODEL 3
REMARK minimizedAffinity -5.24212742
REMARK minimizedRMSD -1
REMARK  Name = /home/tchapet/Post-Doc/ARTICLES-DOSSIERS-DES-ARTICLES-EN-REDACTION/NOUVELS-AXES-DE-RECHERCHE-A-REGARDER-URGEMMENT/ARTICLES-EN-REDACTIONS/ARTICLE_MVOTO/Paper2_JCIM/docking_rerun/ligands/5081.pdb
REMARK  6 active torsions:
REMARK  status: ('A' for Active; 'I' for Inactive)
REMARK    1  A    between atoms: C1_1  and  C2_2
REMARK    2  A    between atoms: C2_2  and  O1_3
REMARK    3  A    between atoms: O1_3  and  C3_4
REMARK    4  A    between atoms: C3_4  and  C4_6
REMARK    5  A    between atoms: N3_12  and  C8_13
REMARK    6  A    between atoms: C14_20  and  N4_22
REMARK                            x       y       z     vdW  Elec       q    Type
REMARK                         _______ _______ _______ _____ _____    ______ ____
ROOT
ATOM      1  C4  UNL     1       8.407  16.989  18.409  0.00  0.00    +0.170 A 
ATOM      2  N1  UNL     1       9.337  16.397  17.630  0.00  0.00    -0.228 NA
ATOM      3  C5  UNL     1       8.739  15.276  17.175  0.00  0.00    +0.205 A 
ATOM      4  N2  UNL     1       7.482  15.133  17.642  0.00  0.00    -0.300 N 
ATOM      5  C6  UNL     1       7.251  16.217  18.400  0.00  0.00    +0.075 A 
ATOM      6  C7  UNL     1       5.960  16.421  19.124  0.00  0.00    +0.163 C 
ATOM      7  N3  UNL     1       5.835  15.379  20.140  0.00  0.00    -0.295 N 
ATOM      8  C8  UNL     1       5.883  15.732  21.562  0.00  0.00    +0.132 C 
ATOM      9  C9  UNL     1       5.681  13.993  19.760  0.00  0.00    +0.249 C 
ATOM     10  O3  UNL     1       5.500  13.128  20.663  0.00  0.00    -0.270 OA
ATOM     11  C10 UNL     1       5.685  13.536  18.340  0.00  0.00    +0.063 A 
ATOM     12  C11 UNL     1       6.565  14.060  17.352  0.00  0.00    +0.060 A 
ATOM     13  C12 UNL     1       6.547  13.515  16.058  0.00  0.00    +0.029 A 
ATOM     14  C13 UNL     1       5.679  12.474  15.730  0.00  0.00    +0.033 A 
ATOM     15  C14 UNL     1       4.810  11.949  16.696  0.00  0.00    +0.101 A 
ATOM     16  C15 UNL     1       4.824  12.478  17.989  0.00  0.00    +0.045 A 
ENDROOT
BRANCH  15  17
ATOM     17  N4  UNL     1       3.905  10.878  16.395  0.00  0.00    -0.072 NA
ATOM     18  N5  UNL     1       2.683  11.005  16.477  0.00  0.00    -0.162 NA
ATOM     19  N6  UNL     1       1.462  11.128  16.559  0.00  0.00    +0.068 NA
ENDBRANCH  15  17
BRANCH   1  20
ATOM     20  C3  UNL     1       8.681  18.238  19.144  0.00  0.00    +0.360 C 
ATOM     21  O2  UNL     1       8.920  19.312  18.531  0.00  0.00    -0.243 OA
BRANCH  20  22
ATOM     22  O1  UNL     1       8.659  18.214  20.543  0.00  0.00    -0.460 OA
BRANCH  22  24
ATOM     23  C1  UNL     1       9.268  16.878  22.478  0.00  0.00    +0.048 C 
ATOM     24  C2  UNL     1       9.756  17.765  21.338  0.00  0.00    +0.229 C 
ENDBRANCH  22  24
ENDBRANCH  20  22
ENDBRANCH   1  20
TORSDOF 4
ENDMDL
MODEL 4
REMARK minimizedAffinity -5.23560667
REMARK minimizedRMSD -1
REMARK  Name = /home/tchapet/Post-Doc/ARTICLES-DOSSIERS-DES-ARTICLES-EN-REDACTION/NOUVELS-AXES-DE-RECHERCHE-A-REGARDER-URGEMMENT/ARTICLES-EN-REDACTIONS/ARTICLE_MVOTO/Paper2_JCIM/docking_rerun/ligands/5081.pdb
REMARK  6 active torsions:
REMARK  status: ('A' for Active; 'I' for Inactive)
REMARK    1  A    between atoms: C1_1  and  C2_2
REMARK    2  A    between atoms: C2_2  and  O1_3
REMARK    3  A    between atoms: O1_3  and  C3_4
REMARK    4  A    between atoms: C3_4  and  C4_6
REMARK    5  A    between atoms: N3_12  and  C8_13
REMARK    6  A    between atoms: C14_20  and  N4_22
REMARK                            x       y       z     vdW  Elec       q    Type
REMARK                         _______ _______ _______ _____ _____    ______ ____
ROOT
ATOM      1  C4  UNL     1       5.228  12.573  17.505  0.00  0.00    +0.170 A 
ATOM      2  N1  UNL     1       5.547  12.078  18.720  0.00  0.00    -0.228 NA
ATOM      3  C5  UNL     1       6.257  13.060  19.314  0.00  0.00    +0.205 A 
ATOM      4  N2  UNL     1       6.407  14.143  18.524  0.00  0.00    -0.300 N 
ATOM      5  C6  UNL     1       5.743  13.859  17.391  0.00  0.00    +0.075 A 
ATOM      6  C7  UNL     1       5.692  14.809  16.239  0.00  0.00    +0.163 C 
ATOM      7  N3  UNL     1       7.044  14.952  15.703  0.00  0.00    -0.295 N 
ATOM      8  C8  UNL     1       7.359  14.442  14.365  0.00  0.00    +0.132 C 
ATOM      9  C9  UNL     1       8.085  15.578  16.485  0.00  0.00    +0.249 C 
ATOM     10  O3  UNL     1       9.221  15.752  15.962  0.00  0.00    -0.270 OA
ATOM     11  C10 UNL     1       7.869  16.069  17.878  0.00  0.00    +0.063 A 
ATOM     12  C11 UNL     1       7.099  15.364  18.845  0.00  0.00    +0.060 A 
ATOM     13  C12 UNL     1       7.014  15.867  20.154  0.00  0.00    +0.029 A 
ATOM     14  C13 UNL     1       7.669  17.044  20.514  0.00  0.00    +0.033 A 
ATOM     15  C14 UNL     1       8.432  17.744  19.570  0.00  0.00    +0.101 A 
ATOM     16  C15 UNL     1       8.531  17.250  18.266  0.00  0.00    +0.045 A 
ENDROOT
BRANCH  15  17
ATOM     17  N4  UNL     1       9.120  18.957  19.905  0.00  0.00    -0.072 NA
ATOM     18  N5  UNL     1       9.981  19.005  20.784  0.00  0.00    -0.162 NA
ATOM     19  N6  UNL     1      10.841  19.055  21.661  0.00  0.00    +0.068 NA
ENDBRANCH  15  17
BRANCH   1  20
ATOM     20  C3  UNL     1       4.481  11.782  16.510  0.00  0.00    +0.360 C 
ATOM     21  O2  UNL     1       5.057  11.297  15.501  0.00  0.00    -0.243 OA
BRANCH  20  22
ATOM     22  O1  UNL     1       3.113  11.568  16.711  0.00  0.00    -0.460 OA
BRANCH  22  24
ATOM     23  C1  UNL     1       1.009  11.956  17.859  0.00  0.00    +0.048 C 
ATOM     24  C2  UNL     1       2.217  12.579  17.171  0.00  0.00    +0.229 C 
ENDBRANCH  22  24
ENDBRANCH  20  22
ENDBRANCH   1  20
TORSDOF 4
ENDMDL
MODEL 5
REMARK minimizedAffinity -5.14511633
REMARK minimizedRMSD -1
REMARK  Name = /home/tchapet/Post-Doc/ARTICLES-DOSSIERS-DES-ARTICLES-EN-REDACTION/NOUVELS-AXES-DE-RECHERCHE-A-REGARDER-URGEMMENT/ARTICLES-EN-REDACTIONS/ARTICLE_MVOTO/Paper2_JCIM/docking_rerun/ligands/5081.pdb
REMARK  6 active torsions:
REMARK  status: ('A' for Active; 'I' for Inactive)
REMARK    1  A    between atoms: C1_1  and  C2_2
REMARK    2  A    between atoms: C2_2  and  O1_3
REMARK    3  A    between atoms: O1_3  and  C3_4
REMARK    4  A    between atoms: C3_4  and  C4_6
REMARK    5  A    between atoms: N3_12  and  C8_13
REMARK    6  A    between atoms: C14_20  and  N4_22
REMARK                            x       y       z     vdW  Elec       q    Type
REMARK                         _______ _______ _______ _____ _____    ______ ____
ROOT
ATOM      1  C4  UNL     1       6.420  13.156  15.458  0.00  0.00    +0.170 A 
ATOM      2  N1  UNL     1       6.605  11.907  15.936  0.00  0.00    -0.228 NA
ATOM      3  C5  UNL     1       6.383  12.010  17.262  0.00  0.00    +0.205 A 
ATOM      4  N2  UNL     1       6.078  13.269  17.640  0.00  0.00    -0.300 N 
ATOM      5  C6  UNL     1       6.073  13.995  16.511  0.00  0.00    +0.075 A 
ATOM      6  C7  UNL     1       5.801  15.464  16.510  0.00  0.00    +0.163 C 
ATOM      7  N3  UNL     1       6.884  16.131  17.228  0.00  0.00    -0.295 N 
ATOM      8  C8  UNL     1       7.809  17.011  16.506  0.00  0.00    +0.132 C 
ATOM      9  C9  UNL     1       7.069  15.922  18.646  0.00  0.00    +0.249 C 
ATOM     10  O3  UNL     1       7.969  16.572  19.248  0.00  0.00    -0.270 OA
ATOM     11  C10 UNL     1       6.216  14.996  19.447  0.00  0.00    +0.063 A 
ATOM     12  C11 UNL     1       5.779  13.727  18.972  0.00  0.00    +0.060 A 
ATOM     13  C12 UNL     1       5.041  12.892  19.827  0.00  0.00    +0.029 A 
ATOM     14  C13 UNL     1       4.728  13.291  21.126  0.00  0.00    +0.033 A 
ATOM     15  C14 UNL     1       5.156  14.537  21.604  0.00  0.00    +0.101 A 
ATOM     16  C15 UNL     1       5.898  15.374  20.766  0.00  0.00    +0.045 A 
ENDROOT
BRANCH  15  17
ATOM     17  N4  UNL     1       4.855  14.979  22.934  0.00  0.00    -0.072 NA
ATOM     18  N5  UNL     1       3.807  15.561  23.215  0.00  0.00    -0.162 NA
ATOM     19  N6  UNL     1       2.760  16.142  23.497  0.00  0.00    +0.068 NA
ENDBRANCH  15  17
BRANCH   1  20
ATOM     20  C3  UNL     1       6.615  13.486  14.035  0.00  0.00    +0.360 C 
ATOM     21  O2  UNL     1       7.464  14.345  13.678  0.00  0.00    -0.243 OA
BRANCH  20  22
ATOM     22  O1  UNL     1       5.843  12.818  13.077  0.00  0.00    -0.460 OA
BRANCH  22  24
ATOM     23  C1  UNL     1       3.886  11.820  12.042  0.00  0.00    +0.048 C 
ATOM     24  C2  UNL     1       4.417  12.764  13.115  0.00  0.00    +0.229 C 
ENDBRANCH  22  24
ENDBRANCH  20  22
ENDBRANCH   1  20
TORSDOF 4
ENDMDL
MODEL 6
REMARK minimizedAffinity -5.11908913
REMARK minimizedRMSD -1
REMARK  Name = /home/tchapet/Post-Doc/ARTICLES-DOSSIERS-DES-ARTICLES-EN-REDACTION/NOUVELS-AXES-DE-RECHERCHE-A-REGARDER-URGEMMENT/ARTICLES-EN-REDACTIONS/ARTICLE_MVOTO/Paper2_JCIM/docking_rerun/ligands/5081.pdb
REMARK  6 active torsions:
REMARK  status: ('A' for Active; 'I' for Inactive)
REMARK    1  A    between atoms: C1_1  and  C2_2
REMARK    2  A    between atoms: C2_2  and  O1_3
REMARK    3  A    between atoms: O1_3  and  C3_4
REMARK    4  A    between atoms: C3_4  and  C4_6
REMARK    5  A    between atoms: N3_12  and  C8_13
REMARK    6  A    between atoms: C14_20  and  N4_22
REMARK                            x       y       z     vdW  Elec       q    Type
REMARK                         _______ _______ _______ _____ _____    ______ ____
ROOT
ATOM      1  C4  UNL     1       6.642  13.969  17.732  0.00  0.00    +0.170 A 
ATOM      2  N1  UNL     1       6.289  12.794  18.296  0.00  0.00    -0.228 NA
ATOM      3  C5  UNL     1       5.846  13.125  19.526  0.00  0.00    +0.205 A 
ATOM      4  N2  UNL     1       5.915  14.451  19.764  0.00  0.00    -0.300 N 
ATOM      5  C6  UNL     1       6.391  14.997  18.633  0.00  0.00    +0.075 A 
ATOM      6  C7  UNL     1       6.640  16.464  18.501  0.00  0.00    +0.163 C 
ATOM      7  N3  UNL     1       7.712  16.832  19.423  0.00  0.00    -0.295 N 
ATOM      8  C8  UNL     1       9.008  17.275  18.899  0.00  0.00    +0.132 C 
ATOM      9  C9  UNL     1       7.517  16.749  20.852  0.00  0.00    +0.249 C 
ATOM     10  O3  UNL     1       8.439  17.146  21.619  0.00  0.00    -0.270 OA
ATOM     11  C10 UNL     1       6.254  16.251  21.471  0.00  0.00    +0.063 A 
ATOM     12  C11 UNL     1       5.521  15.140  20.965  0.00  0.00    +0.060 A 
ATOM     13  C12 UNL     1       4.383  14.696  21.659  0.00  0.00    +0.029 A 
ATOM     14  C13 UNL     1       3.963  15.330  22.828  0.00  0.00    +0.033 A 
ATOM     15  C14 UNL     1       4.679  16.423  23.335  0.00  0.00    +0.101 A 
ATOM     16  C15 UNL     1       5.818  16.869  22.659  0.00  0.00    +0.045 A 
ENDROOT
BRANCH  15  17
ATOM     17  N4  UNL     1       4.278  17.097  24.536  0.00  0.00    -0.072 NA
ATOM     18  N5  UNL     1       4.759  18.178  24.876  0.00  0.00    -0.162 NA
ATOM     19  N6  UNL     1       5.237  19.259  25.218  0.00  0.00    +0.068 NA
ENDBRANCH  15  17
BRANCH   1  20
ATOM     20  C3  UNL     1       7.228  14.043  16.381  0.00  0.00    +0.360 C 
ATOM     21  O2  UNL     1       6.603  13.609  15.377  0.00  0.00    -0.243 OA
BRANCH  20  22
ATOM     22  O1  UNL     1       8.495  14.618  16.228  0.00  0.00    -0.460 OA
BRANCH  22  24
ATOM     23  C1  UNL     1       8.393  16.817  15.204  0.00  0.00    +0.048 C 
ATOM     24  C2  UNL     1       8.880  15.378  15.083  0.00  0.00    +0.229 C 
ENDBRANCH  22  24
ENDBRANCH  20  22
ENDBRANCH   1  20
TORSDOF 4
ENDMDL
MODEL 7
REMARK minimizedAffinity -5.1093955
REMARK minimizedRMSD -1
REMARK  Name = /home/tchapet/Post-Doc/ARTICLES-DOSSIERS-DES-ARTICLES-EN-REDACTION/NOUVELS-AXES-DE-RECHERCHE-A-REGARDER-URGEMMENT/ARTICLES-EN-REDACTIONS/ARTICLE_MVOTO/Paper2_JCIM/docking_rerun/ligands/5081.pdb
REMARK  6 active torsions:
REMARK  status: ('A' for Active; 'I' for Inactive)
REMARK    1  A    between atoms: C1_1  and  C2_2
REMARK    2  A    between atoms: C2_2  and  O1_3
REMARK    3  A    between atoms: O1_3  and  C3_4
REMARK    4  A    between atoms: C3_4  and  C4_6
REMARK    5  A    between atoms: N3_12  and  C8_13
REMARK    6  A    between atoms: C14_20  and  N4_22
REMARK                            x       y       z     vdW  Elec       q    Type
REMARK                         _______ _______ _______ _____ _____    ______ ____
ROOT
ATOM      1  C4  UNL     1       5.080  -3.915  36.433  0.00  0.00    +0.170 A 
ATOM      2  N1  UNL     1       6.245  -3.331  36.083  0.00  0.00    -0.228 NA
ATOM      3  C5  UNL     1       6.524  -3.828  34.861  0.00  0.00    +0.205 A 
ATOM      4  N2  UNL     1       5.594  -4.705  34.432  0.00  0.00    -0.300 N 
ATOM      5  C6  UNL     1       4.666  -4.750  35.402  0.00  0.00    +0.075 A 
ATOM      6  C7  UNL     1       3.468  -5.638  35.317  0.00  0.00    +0.163 C 
ATOM      7  N3  UNL     1       3.923  -7.026  35.346  0.00  0.00    -0.295 N 
ATOM      8  C8  UNL     1       3.603  -7.878  36.496  0.00  0.00    +0.132 C 
ATOM      9  C9  UNL     1       4.704  -7.570  34.258  0.00  0.00    +0.249 C 
ATOM     10  O3  UNL     1       5.017  -8.794  34.282  0.00  0.00    -0.270 OA
ATOM     11  C10 UNL     1       5.128  -6.759  33.080  0.00  0.00    +0.063 A 
ATOM     12  C11 UNL     1       5.578  -5.413  33.178  0.00  0.00    +0.060 A 
ATOM     13  C12 UNL     1       6.029  -4.753  32.022  0.00  0.00    +0.029 A 
ATOM     14  C13 UNL     1       6.035  -5.397  30.786  0.00  0.00    +0.033 A 
ATOM     15  C14 UNL     1       5.596  -6.724  30.679  0.00  0.00    +0.101 A 
ATOM     16  C15 UNL     1       5.153  -7.394  31.822  0.00  0.00    +0.045 A 
ENDROOT
BRANCH  15  17
ATOM     17  N4  UNL     1       5.591  -7.418  29.424  0.00  0.00    -0.072 NA
ATOM     18  N5  UNL     1       6.598  -7.520  28.723  0.00  0.00    -0.162 NA
ATOM     19  N6  UNL     1       7.603  -7.623  28.021  0.00  0.00    +0.068 NA
ENDBRANCH  15  17
BRANCH   1  20
ATOM     20  C3  UNL     1       4.444  -3.671  37.741  0.00  0.00    +0.360 C 
ATOM     21  O2  UNL     1       3.328  -3.093  37.822  0.00  0.00    -0.243 OA
BRANCH  20  22
ATOM     22  O1  UNL     1       5.099  -4.105  38.899  0.00  0.00    -0.460 OA
BRANCH  22  24
ATOM     23  C1  UNL     1       6.541  -6.058  38.884  0.00  0.00    +0.048 C 
ATOM     24  C2  UNL     1       5.190  -5.477  39.283  0.00  0.00    +0.229 C 
ENDBRANCH  22  24
ENDBRANCH  20  22
ENDBRANCH   1  20
TORSDOF 4
ENDMDL
MODEL 8
REMARK minimizedAffinity -5.08417654
REMARK minimizedRMSD -1
REMARK  Name = /home/tchapet/Post-Doc/ARTICLES-DOSSIERS-DES-ARTICLES-EN-REDACTION/NOUVELS-AXES-DE-RECHERCHE-A-REGARDER-URGEMMENT/ARTICLES-EN-REDACTIONS/ARTICLE_MVOTO/Paper2_JCIM/docking_rerun/ligands/5081.pdb
REMARK  6 active torsions:
REMARK  status: ('A' for Active; 'I' for Inactive)
REMARK    1  A    between atoms: C1_1  and  C2_2
REMARK    2  A    between atoms: C2_2  and  O1_3
REMARK    3  A    between atoms: O1_3  and  C3_4
REMARK    4  A    between atoms: C3_4  and  C4_6
REMARK    5  A    between atoms: N3_12  and  C8_13
REMARK    6  A    between atoms: C14_20  and  N4_22
REMARK                            x       y       z     vdW  Elec       q    Type
REMARK                         _______ _______ _______ _____ _____    ______ ____
ROOT
ATOM      1  C4  UNL     1       6.798  17.127  22.065  0.00  0.00    +0.170 A 
ATOM      2  N1  UNL     1       8.088  17.526  22.097  0.00  0.00    -0.228 NA
ATOM      3  C5  UNL     1       8.576  17.205  20.881  0.00  0.00    +0.205 A 
ATOM      4  N2  UNL     1       7.656  16.613  20.092  0.00  0.00    -0.300 N 
ATOM      5  C6  UNL     1       6.526  16.580  20.816  0.00  0.00    +0.075 A 
ATOM      6  C7  UNL     1       5.265  15.970  20.297  0.00  0.00    +0.163 C 
ATOM      7  N3  UNL     1       5.488  14.536  20.122  0.00  0.00    -0.295 N 
ATOM      8  C8  UNL     1       4.777  13.576  20.972  0.00  0.00    +0.132 C 
ATOM      9  C9  UNL     1       6.418  14.050  19.129  0.00  0.00    +0.249 C 
ATOM     10  O3  UNL     1       6.530  12.804  18.955  0.00  0.00    -0.270 OA
ATOM     11  C10 UNL     1       7.229  14.956  18.265  0.00  0.00    +0.063 A 
ATOM     12  C11 UNL     1       7.838  16.151  18.741  0.00  0.00    +0.060 A 
ATOM     13  C12 UNL     1       8.648  16.902  17.871  0.00  0.00    +0.029 A 
ATOM     14  C13 UNL     1       8.856  16.494  16.554  0.00  0.00    +0.033 A 
ATOM     15  C14 UNL     1       8.262  15.318  16.077  0.00  0.00    +0.101 A 
ATOM     16  C15 UNL     1       7.462  14.558  16.934  0.00  0.00    +0.045 A 
ENDROOT
BRANCH  15  17
ATOM     17  N4  UNL     1       8.457  14.866  14.730  0.00  0.00    -0.072 NA
ATOM     18  N5  UNL     1       8.467  15.639  13.771  0.00  0.00    -0.162 NA
ATOM     19  N6  UNL     1       8.477  16.409  12.812  0.00  0.00    +0.068 NA
ENDBRANCH  15  17
BRANCH   1  20
ATOM     20  C3  UNL     1       5.909  17.258  23.234  0.00  0.00    +0.360 C 
ATOM     21  O2  UNL     1       5.960  18.273  23.977  0.00  0.00    -0.243 OA
BRANCH  20  22
ATOM     22  O1  UNL     1       4.993  16.234  23.500  0.00  0.00    -0.460 OA
BRANCH  22  24
ATOM     23  C1  UNL     1       2.628  15.976  23.014  0.00  0.00    +0.048 C 
ATOM     24  C2  UNL     1       3.678  16.466  24.004  0.00  0.00    +0.229 C 
ENDBRANCH  22  24
ENDBRANCH  20  22
ENDBRANCH   1  20
TORSDOF 4
ENDMDL
MODEL 9
REMARK minimizedAffinity -5.05889702
REMARK minimizedRMSD -1
REMARK  Name = /home/tchapet/Post-Doc/ARTICLES-DOSSIERS-DES-ARTICLES-EN-REDACTION/NOUVELS-AXES-DE-RECHERCHE-A-REGARDER-URGEMMENT/ARTICLES-EN-REDACTIONS/ARTICLE_MVOTO/Paper2_JCIM/docking_rerun/ligands/5081.pdb
REMARK  6 active torsions:
REMARK  status: ('A' for Active; 'I' for Inactive)
REMARK    1  A    between atoms: C1_1  and  C2_2
REMARK    2  A    between atoms: C2_2  and  O1_3
REMARK    3  A    between atoms: O1_3  and  C3_4
REMARK    4  A    between atoms: C3_4  and  C4_6
REMARK    5  A    between atoms: N3_12  and  C8_13
REMARK    6  A    between atoms: C14_20  and  N4_22
REMARK                            x       y       z     vdW  Elec       q    Type
REMARK                         _______ _______ _______ _____ _____    ______ ____
ROOT
ATOM      1  C4  UNL     1       5.969  17.688  23.277  0.00  0.00    +0.170 A 
ATOM      2  N1  UNL     1       4.631  17.519  23.331  0.00  0.00    -0.228 NA
ATOM      3  C5  UNL     1       4.381  16.497  22.487  0.00  0.00    +0.205 A 
ATOM      4  N2  UNL     1       5.499  16.025  21.898  0.00  0.00    -0.300 N 
ATOM      5  C6  UNL     1       6.509  16.750  22.406  0.00  0.00    +0.075 A 
ATOM      6  C7  UNL     1       7.927  16.547  21.980  0.00  0.00    +0.163 C 
ATOM      7  N3  UNL     1       8.040  16.918  20.572  0.00  0.00    -0.295 N 
ATOM      8  C8  UNL     1       8.826  18.094  20.185  0.00  0.00    +0.132 C 
ATOM      9  C9  UNL     1       7.369  16.148  19.549  0.00  0.00    +0.249 C 
ATOM     10  O3  UNL     1       7.550  16.453  18.337  0.00  0.00    -0.270 OA
ATOM     11  C10 UNL     1       6.499  14.976  19.857  0.00  0.00    +0.063 A 
ATOM     12  C11 UNL     1       5.593  14.942  20.954  0.00  0.00    +0.060 A 
ATOM     13  C12 UNL     1       4.758  13.823  21.120  0.00  0.00    +0.029 A 
ATOM     14  C13 UNL     1       4.811  12.751  20.231  0.00  0.00    +0.033 A 
ATOM     15  C14 UNL     1       5.698  12.776  19.146  0.00  0.00    +0.101 A 
ATOM     16  C15 UNL     1       6.527  13.886  18.965  0.00  0.00    +0.045 A 
ENDROOT
BRANCH  15  17
ATOM     17  N4  UNL     1       5.778  11.693  18.210  0.00  0.00    -0.072 NA
ATOM     18  N5  UNL     1       6.023  11.869  17.016  0.00  0.00    -0.162 NA
ATOM     19  N6  UNL     1       6.267  12.044  15.824  0.00  0.00    +0.068 NA
ENDBRANCH  15  17
BRANCH   1  20
ATOM     20  C3  UNL     1       6.654  18.754  24.032  0.00  0.00    +0.360 C 
ATOM     21  O2  UNL     1       7.689  18.509  24.706  0.00  0.00    -0.243 OA
BRANCH  20  22
ATOM     22  O1  UNL     1       6.137  20.054  23.979  0.00  0.00    -0.460 OA
BRANCH  22  24
ATOM     23  C1  UNL     1       7.366  22.085  24.491  0.00  0.00    +0.048 C 
ATOM     24  C2  UNL     1       6.377  21.036  24.986  0.00  0.00    +0.229 C 
ENDBRANCH  22  24
ENDBRANCH  20  22
ENDBRANCH   1  20
TORSDOF 4
ENDMDL
