MODEL 1
REMARK minimizedAffinity -6.62735033
REMARK minimizedRMSD -1
REMARK  Name = /home/tchapet/Post-Doc/ARTICLES-DOSSIERS-DES-ARTICLES-EN-REDACTION/NOUVELS-AXES-DE-RECHERCHE-A-REGARDER-URGEMMENT/ARTICLES-EN-REDACTIONS/ARTICLE_MVOTO/Paper2_JCIM/docking_rerun/ligands/5081.pdb
REMARK  6 active torsions:
REMARK  status: ('A' for Active; 'I' for Inactive)
REMARK    1  A    between atoms: C1_1  and  C2_2
REMARK    2  A    between atoms: C2_2  and  O1_3
REMARK    3  A    between atoms: O1_3  and  C3_4
REMARK    4  A    between atoms: C3_4  and  C4_6
REMARK    5  A    between atoms: N3_12  and  C8_13
REMARK    6  A    between atoms: C14_20  and  N4_22
REMARK                            x       y       z     vdW  Elec       q    Type
REMARK                         _______ _______ _______ _____ _____    ______ ____
ROOT
ATOM      1  C4  UNL     1      13.563  -1.761   7.202  0.00  0.00    +0.170 A 
ATOM      2  N1  UNL     1      13.482  -0.927   6.145  0.00  0.00    -0.228 NA
ATOM      3  C5  UNL     1      13.801  -1.691   5.080  0.00  0.00    +0.205 A 
ATOM      4  N2  UNL     1      14.090  -2.963   5.422  0.00  0.00    -0.300 N 
ATOM      5  C6  UNL     1      13.919  -3.028   6.753  0.00  0.00    +0.075 A 
ATOM      6  C7  UNL     1      14.168  -4.280   7.528  0.00  0.00    +0.163 C 
ATOM      7  N3  UNL     1      15.593  -4.594   7.446  0.00  0.00    -0.295 N 
ATOM      8  C8  UNL     1      16.430  -4.515   8.648  0.00  0.00    +0.132 C 
ATOM      9  C9  UNL     1      16.196  -4.966   6.187  0.00  0.00    +0.249 C 
ATOM     10  O3  UNL     1      17.413  -5.302   6.168  0.00  0.00    -0.270 OA
ATOM     11  C10 UNL     1      15.434  -5.010   4.905  0.00  0.00    +0.063 A 
ATOM     12  C11 UNL     1      14.461  -4.038   4.539  0.00  0.00    +0.060 A 
ATOM     13  C12 UNL     1      13.849  -4.121   3.277  0.00  0.00    +0.029 A 
ATOM     14  C13 UNL     1      14.177  -5.142   2.386  0.00  0.00    +0.033 A 
ATOM     15  C14 UNL     1      15.136  -6.103   2.736  0.00  0.00    +0.101 A 
ATOM     16  C15 UNL     1      15.758  -6.027   3.985  0.00  0.00    +0.045 A 
ENDROOT
BRANCH  15  17
ATOM     17  N4  UNL     1      15.500  -7.165   1.844  0.00  0.00    -0.072 NA
ATOM     18  N5  UNL     1      15.792  -6.965   0.665  0.00  0.00    -0.162 NA
ATOM     19  N6  UNL     1      16.082  -6.767  -0.514  0.00  0.00    +0.068 NA
ENDBRANCH  15  17
BRANCH   1  20
ATOM     20  C3  UNL     1      13.329  -1.300   8.583  0.00  0.00    +0.360 C 
ATOM     21  O2  UNL     1      12.766  -0.197   8.812  0.00  0.00    -0.243 OA
BRANCH  20  22
ATOM     22  O1  UNL     1      13.735  -2.118   9.643  0.00  0.00    -0.460 OA
BRANCH  22  24
ATOM     23  C1  UNL     1      12.620  -4.036  10.632  0.00  0.00    +0.048 C 
ATOM     24  C2  UNL     1      12.863  -2.533  10.695  0.00  0.00    +0.229 C 
ENDBRANCH  22  24
ENDBRANCH  20  22
ENDBRANCH   1  20
TORSDOF 4
ENDMDL
MODEL 2
REMARK minimizedAffinity -6.02559996
REMARK minimizedRMSD -1
REMARK  Name = /home/tchapet/Post-Doc/ARTICLES-DOSSIERS-DES-ARTICLES-EN-REDACTION/NOUVELS-AXES-DE-RECHERCHE-A-REGARDER-URGEMMENT/ARTICLES-EN-REDACTIONS/ARTICLE_MVOTO/Paper2_JCIM/docking_rerun/ligands/5081.pdb
REMARK  6 active torsions:
REMARK  status: ('A' for Active; 'I' for Inactive)
REMARK    1  A    between atoms: C1_1  and  C2_2
REMARK    2  A    between atoms: C2_2  and  O1_3
REMARK    3  A    between atoms: O1_3  and  C3_4
REMARK    4  A    between atoms: C3_4  and  C4_6
REMARK    5  A    between atoms: N3_12  and  C8_13
REMARK    6  A    between atoms: C14_20  and  N4_22
REMARK                            x       y       z     vdW  Elec       q    Type
REMARK                         _______ _______ _______ _____ _____    ______ ____
ROOT
ATOM      1  C4  UNL     1      13.480  -0.743   1.848  0.00  0.00    +0.170 A 
ATOM      2  N1  UNL     1      12.498   0.100   2.233  0.00  0.00    -0.228 NA
ATOM      3  C5  UNL     1      12.427  -0.046   3.572  0.00  0.00    +0.205 A 
ATOM      4  N2  UNL     1      13.312  -0.949   4.044  0.00  0.00    -0.300 N 
ATOM      5  C6  UNL     1      13.998  -1.376   2.972  0.00  0.00    +0.075 A 
ATOM      6  C7  UNL     1      15.067  -2.415   3.073  0.00  0.00    +0.163 C 
ATOM      7  N3  UNL     1      14.448  -3.672   3.487  0.00  0.00    -0.295 N 
ATOM      8  C8  UNL     1      14.406  -4.808   2.562  0.00  0.00    +0.132 C 
ATOM      9  C9  UNL     1      13.856  -3.806   4.799  0.00  0.00    +0.249 C 
ATOM     10  O3  UNL     1      13.396  -4.929   5.150  0.00  0.00    -0.270 OA
ATOM     11  C10 UNL     1      13.798  -2.684   5.781  0.00  0.00    +0.063 A 
ATOM     12  C11 UNL     1      13.507  -1.340   5.416  0.00  0.00    +0.060 A 
ATOM     13  C12 UNL     1      13.399  -0.363   6.421  0.00  0.00    +0.029 A 
ATOM     14  C13 UNL     1      13.577  -0.693   7.764  0.00  0.00    +0.033 A 
ATOM     15  C14 UNL     1      13.862  -2.015   8.133  0.00  0.00    +0.101 A 
ATOM     16  C15 UNL     1      13.963  -2.997   7.144  0.00  0.00    +0.045 A 
ENDROOT
BRANCH  15  17
ATOM     17  N4  UNL     1      14.048  -2.392   9.505  0.00  0.00    -0.072 NA
ATOM     18  N5  UNL     1      13.397  -3.292  10.035  0.00  0.00    -0.162 NA
ATOM     19  N6  UNL     1      12.747  -4.190  10.568  0.00  0.00    +0.068 NA
ENDBRANCH  15  17
BRANCH   1  20
ATOM     20  C3  UNL     1      13.848  -0.921   0.431  0.00  0.00    +0.360 C 
ATOM     21  O2  UNL     1      13.380  -1.874  -0.246  0.00  0.00    -0.243 OA
BRANCH  20  22
ATOM     22  O1  UNL     1      14.723  -0.001  -0.157  0.00  0.00    -0.460 OA
BRANCH  22  24
ATOM     23  C1  UNL     1      14.890   2.420  -0.251  0.00  0.00    +0.048 C 
ATOM     24  C2  UNL     1      14.286   1.161  -0.862  0.00  0.00    +0.229 C 
ENDBRANCH  22  24
ENDBRANCH  20  22
ENDBRANCH   1  20
TORSDOF 4
ENDMDL
MODEL 3
REMARK minimizedAffinity -5.83556604
REMARK minimizedRMSD -1
REMARK  Name = /home/tchapet/Post-Doc/ARTICLES-DOSSIERS-DES-ARTICLES-EN-REDACTION/NOUVELS-AXES-DE-RECHERCHE-A-REGARDER-URGEMMENT/ARTICLES-EN-REDACTIONS/ARTICLE_MVOTO/Paper2_JCIM/docking_rerun/ligands/5081.pdb
REMARK  6 active torsions:
REMARK  status: ('A' for Active; 'I' for Inactive)
REMARK    1  A    between atoms: C1_1  and  C2_2
REMARK    2  A    between atoms: C2_2  and  O1_3
REMARK    3  A    between atoms: O1_3  and  C3_4
REMARK    4  A    between atoms: C3_4  and  C4_6
REMARK    5  A    between atoms: N3_12  and  C8_13
REMARK    6  A    between atoms: C14_20  and  N4_22
REMARK                            x       y       z     vdW  Elec       q    Type
REMARK                         _______ _______ _______ _____ _____    ______ ____
ROOT
ATOM      1  C4  UNL     1      13.324  -0.736   1.805  0.00  0.00    +0.170 A 
ATOM      2  N1  UNL     1      12.345   0.103   2.204  0.00  0.00    -0.228 NA
ATOM      3  C5  UNL     1      12.318  -0.015   3.547  0.00  0.00    +0.205 A 
ATOM      4  N2  UNL     1      13.228  -0.897   4.008  0.00  0.00    -0.300 N 
ATOM      5  C6  UNL     1      13.885  -1.340   2.924  0.00  0.00    +0.075 A 
ATOM      6  C7  UNL     1      14.969  -2.364   3.013  0.00  0.00    +0.163 C 
ATOM      7  N3  UNL     1      14.378  -3.619   3.473  0.00  0.00    -0.295 N 
ATOM      8  C8  UNL     1      14.320  -4.775   2.572  0.00  0.00    +0.132 C 
ATOM      9  C9  UNL     1      13.830  -3.732   4.805  0.00  0.00    +0.249 C 
ATOM     10  O3  UNL     1      13.395  -4.852   5.194  0.00  0.00    -0.270 OA
ATOM     11  C10 UNL     1      13.790  -2.590   5.765  0.00  0.00    +0.063 A 
ATOM     12  C11 UNL     1      13.472  -1.257   5.381  0.00  0.00    +0.060 A 
ATOM     13  C12 UNL     1      13.385  -0.261   6.369  0.00  0.00    +0.029 A 
ATOM     14  C13 UNL     1      13.610  -0.561   7.712  0.00  0.00    +0.033 A 
ATOM     15  C14 UNL     1      13.921  -1.871   8.100  0.00  0.00    +0.101 A 
ATOM     16  C15 UNL     1      14.003  -2.872   7.128  0.00  0.00    +0.045 A 
ENDROOT
BRANCH  15  17
ATOM     17  N4  UNL     1      14.156  -2.216   9.472  0.00  0.00    -0.072 NA
ATOM     18  N5  UNL     1      14.026  -1.404  10.387  0.00  0.00    -0.162 NA
ATOM     19  N6  UNL     1      13.896  -0.594  11.304  0.00  0.00    +0.068 NA
ENDBRANCH  15  17
BRANCH   1  20
ATOM     20  C3  UNL     1      13.648  -0.940   0.381  0.00  0.00    +0.360 C 
ATOM     21  O2  UNL     1      14.735  -0.529  -0.103  0.00  0.00    -0.243 OA
BRANCH  20  22
ATOM     22  O1  UNL     1      12.725  -1.612  -0.429  0.00  0.00    -0.460 OA
BRANCH  22  24
ATOM     23  C1  UNL     1      10.515  -2.526  -0.012  0.00  0.00    +0.048 C 
ATOM     24  C2  UNL     1      12.017  -2.780  -0.012  0.00  0.00    +0.229 C 
ENDBRANCH  22  24
ENDBRANCH  20  22
ENDBRANCH   1  20
TORSDOF 4
ENDMDL
MODEL 4
REMARK minimizedAffinity -5.78940487
REMARK minimizedRMSD -1
REMARK  Name = /home/tchapet/Post-Doc/ARTICLES-DOSSIERS-DES-ARTICLES-EN-REDACTION/NOUVELS-AXES-DE-RECHERCHE-A-REGARDER-URGEMMENT/ARTICLES-EN-REDACTIONS/ARTICLE_MVOTO/Paper2_JCIM/docking_rerun/ligands/5081.pdb
REMARK  6 active torsions:
REMARK  status: ('A' for Active; 'I' for Inactive)
REMARK    1  A    between atoms: C1_1  and  C2_2
REMARK    2  A    between atoms: C2_2  and  O1_3
REMARK    3  A    between atoms: O1_3  and  C3_4
REMARK    4  A    between atoms: C3_4  and  C4_6
REMARK    5  A    between atoms: N3_12  and  C8_13
REMARK    6  A    between atoms: C14_20  and  N4_22
REMARK                            x       y       z     vdW  Elec       q    Type
REMARK                         _______ _______ _______ _____ _____    ______ ____
ROOT
ATOM      1  C4  UNL     1      13.751  -2.407   6.063  0.00  0.00    +0.170 A 
ATOM      2  N1  UNL     1      13.528  -1.416   5.174  0.00  0.00    -0.228 NA
ATOM      3  C5  UNL     1      13.726  -1.986   3.968  0.00  0.00    +0.205 A 
ATOM      4  N2  UNL     1      14.072  -3.286   4.059  0.00  0.00    -0.300 N 
ATOM      5  C6  UNL     1      14.067  -3.571   5.371  0.00  0.00    +0.075 A 
ATOM      6  C7  UNL     1      14.429  -4.923   5.895  0.00  0.00    +0.163 C 
ATOM      7  N3  UNL     1      15.837  -5.169   5.594  0.00  0.00    -0.295 N 
ATOM      8  C8  UNL     1      16.815  -5.256   6.684  0.00  0.00    +0.132 C 
ATOM      9  C9  UNL     1      16.287  -5.311   4.228  0.00  0.00    +0.249 C 
ATOM     10  O3  UNL     1      17.497  -5.598   4.009  0.00  0.00    -0.270 OA
ATOM     11  C10 UNL     1      15.374  -5.175   3.056  0.00  0.00    +0.063 A 
ATOM     12  C11 UNL     1      14.349  -4.191   2.973  0.00  0.00    +0.060 A 
ATOM     13  C12 UNL     1      13.587  -4.090   1.796  0.00  0.00    +0.029 A 
ATOM     14  C13 UNL     1      13.819  -4.941   0.717  0.00  0.00    +0.033 A 
ATOM     15  C14 UNL     1      14.827  -5.912   0.788  0.00  0.00    +0.101 A 
ATOM     16  C15 UNL     1      15.597  -6.017   1.949  0.00  0.00    +0.045 A 
ENDROOT
BRANCH  15  17
ATOM     17  N4  UNL     1      15.095  -6.803  -0.304  0.00  0.00    -0.072 NA
ATOM     18  N5  UNL     1      14.680  -6.593  -1.443  0.00  0.00    -0.162 NA
ATOM     19  N6  UNL     1      14.266  -6.385  -2.583  0.00  0.00    +0.068 NA
ENDBRANCH  15  17
BRANCH   1  20
ATOM     20  C3  UNL     1      13.681  -2.183   7.518  0.00  0.00    +0.360 C 
ATOM     21  O2  UNL     1      13.838  -3.133   8.330  0.00  0.00    -0.243 OA
BRANCH  20  22
ATOM     22  O1  UNL     1      13.448  -0.886   7.989  0.00  0.00    -0.460 OA
BRANCH  22  24
ATOM     23  C1  UNL     1      14.191   0.238  10.009  0.00  0.00    +0.048 C 
ATOM     24  C2  UNL     1      13.100  -0.590   9.341  0.00  0.00    +0.229 C 
ENDBRANCH  22  24
ENDBRANCH  20  22
ENDBRANCH   1  20
TORSDOF 4
ENDMDL
MODEL 5
REMARK minimizedAffinity -5.63645506
REMARK minimizedRMSD -1
REMARK  Name = /home/tchapet/Post-Doc/ARTICLES-DOSSIERS-DES-ARTICLES-EN-REDACTION/NOUVELS-AXES-DE-RECHERCHE-A-REGARDER-URGEMMENT/ARTICLES-EN-REDACTIONS/ARTICLE_MVOTO/Paper2_JCIM/docking_rerun/ligands/5081.pdb
REMARK  6 active torsions:
REMARK  status: ('A' for Active; 'I' for Inactive)
REMARK    1  A    between atoms: C1_1  and  C2_2
REMARK    2  A    between atoms: C2_2  and  O1_3
REMARK    3  A    between atoms: O1_3  and  C3_4
REMARK    4  A    between atoms: C3_4  and  C4_6
REMARK    5  A    between atoms: N3_12  and  C8_13
REMARK    6  A    between atoms: C14_20  and  N4_22
REMARK                            x       y       z     vdW  Elec       q    Type
REMARK                         _______ _______ _______ _____ _____    ______ ____
ROOT
ATOM      1  C4  UNL     1      13.572  -2.094   5.176  0.00  0.00    +0.170 A 
ATOM      2  N1  UNL     1      13.386  -0.987   5.926  0.00  0.00    -0.228 NA
ATOM      3  C5  UNL     1      13.473   0.037   5.053  0.00  0.00    +0.205 A 
ATOM      4  N2  UNL     1      13.716  -0.376   3.792  0.00  0.00    -0.300 N 
ATOM      5  C6  UNL     1      13.756  -1.717   3.851  0.00  0.00    +0.075 A 
ATOM      6  C7  UNL     1      14.032  -2.559   2.648  0.00  0.00    +0.163 C 
ATOM      7  N3  UNL     1      15.398  -2.291   2.204  0.00  0.00    -0.295 N 
ATOM      8  C8  UNL     1      16.420  -3.338   2.306  0.00  0.00    +0.132 C 
ATOM      9  C9  UNL     1      15.762  -0.995   1.679  0.00  0.00    +0.249 C 
ATOM     10  O3  UNL     1      16.932  -0.822   1.236  0.00  0.00    -0.270 OA
ATOM     11  C10 UNL     1      14.804   0.146   1.598  0.00  0.00    +0.063 A 
ATOM     12  C11 UNL     1      13.861   0.449   2.620  0.00  0.00    +0.060 A 
ATOM     13  C12 UNL     1      13.050   1.589   2.489  0.00  0.00    +0.029 A 
ATOM     14  C13 UNL     1      13.155   2.420   1.374  0.00  0.00    +0.033 A 
ATOM     15  C14 UNL     1      14.082   2.131   0.364  0.00  0.00    +0.101 A 
ATOM     16  C15 UNL     1      14.900   1.005   0.486  0.00  0.00    +0.045 A 
ENDROOT
BRANCH  15  17
ATOM     17  N4  UNL     1      14.220   2.964  -0.795  0.00  0.00    -0.072 NA
ATOM     18  N5  UNL     1      13.248   3.379  -1.428  0.00  0.00    -0.162 NA
ATOM     19  N6  UNL     1      12.279   3.794  -2.061  0.00  0.00    +0.068 NA
ENDBRANCH  15  17
BRANCH   1  20
ATOM     20  C3  UNL     1      13.597  -3.445   5.767  0.00  0.00    +0.360 C 
ATOM     21  O2  UNL     1      13.546  -4.472   5.041  0.00  0.00    -0.243 OA
BRANCH  20  22
ATOM     22  O1  UNL     1      13.689  -3.568   7.158  0.00  0.00    -0.460 OA
BRANCH  22  24
ATOM     23  C1  UNL     1      14.425  -4.482   9.284  0.00  0.00    +0.048 C 
ATOM     24  C2  UNL     1      14.763  -4.238   7.818  0.00  0.00    +0.229 C 
ENDBRANCH  22  24
ENDBRANCH  20  22
ENDBRANCH   1  20
TORSDOF 4
ENDMDL
MODEL 6
REMARK minimizedAffinity -5.47575903
REMARK minimizedRMSD -1
REMARK  Name = /home/tchapet/Post-Doc/ARTICLES-DOSSIERS-DES-ARTICLES-EN-REDACTION/NOUVELS-AXES-DE-RECHERCHE-A-REGARDER-URGEMMENT/ARTICLES-EN-REDACTIONS/ARTICLE_MVOTO/Paper2_JCIM/docking_rerun/ligands/5081.pdb
REMARK  6 active torsions:
REMARK  status: ('A' for Active; 'I' for Inactive)
REMARK    1  A    between atoms: C1_1  and  C2_2
REMARK    2  A    between atoms: C2_2  and  O1_3
REMARK    3  A    between atoms: O1_3  and  C3_4
REMARK    4  A    between atoms: C3_4  and  C4_6
REMARK    5  A    between atoms: N3_12  and  C8_13
REMARK    6  A    between atoms: C14_20  and  N4_22
REMARK                            x       y       z     vdW  Elec       q    Type
REMARK                         _______ _______ _______ _____ _____    ______ ____
ROOT
ATOM      1  C4  UNL     1      12.412 -13.719  -1.761  0.00  0.00    +0.170 A 
ATOM      2  N1  UNL     1      12.610 -13.644  -0.428  0.00  0.00    -0.228 NA
ATOM      3  C5  UNL     1      12.662 -14.927  -0.016  0.00  0.00    +0.205 A 
ATOM      4  N2  UNL     1      12.494 -15.804  -1.028  0.00  0.00    -0.300 N 
ATOM      5  C6  UNL     1      12.361 -15.056  -2.136  0.00  0.00    +0.075 A 
ATOM      6  C7  UNL     1      12.128 -15.662  -3.481  0.00  0.00    +0.163 C 
ATOM      7  N3  UNL     1      10.823 -16.319  -3.468  0.00  0.00    -0.295 N 
ATOM      8  C8  UNL     1       9.728 -15.792  -4.290  0.00  0.00    +0.132 C 
ATOM      9  C9  UNL     1      10.589 -17.479  -2.638  0.00  0.00    +0.249 C 
ATOM     10  O3  UNL     1       9.473 -18.066  -2.708  0.00  0.00    -0.270 OA
ATOM     11  C10 UNL     1      11.624 -18.045  -1.725  0.00  0.00    +0.063 A 
ATOM     12  C11 UNL     1      12.500 -17.241  -0.942  0.00  0.00    +0.060 A 
ATOM     13  C12 UNL     1      13.393 -17.864  -0.054  0.00  0.00    +0.029 A 
ATOM     14  C13 UNL     1      13.434 -19.252   0.066  0.00  0.00    +0.033 A 
ATOM     15  C14 UNL     1      12.574 -20.052  -0.699  0.00  0.00    +0.101 A 
ATOM     16  C15 UNL     1      11.675 -19.445  -1.580  0.00  0.00    +0.045 A 
ENDROOT
BRANCH  15  17
ATOM     17  N4  UNL     1      12.586 -21.483  -0.600  0.00  0.00    -0.072 NA
ATOM     18  N5  UNL     1      12.775 -22.068   0.467  0.00  0.00    -0.162 NA
ATOM     19  N6  UNL     1      12.964 -22.655   1.531  0.00  0.00    +0.068 NA
ENDBRANCH  15  17
BRANCH   1  20
ATOM     20  C3  UNL     1      12.249 -12.515  -2.597  0.00  0.00    +0.360 C 
ATOM     21  O2  UNL     1      11.148 -12.251  -3.148  0.00  0.00    -0.243 OA
BRANCH  20  22
ATOM     22  O1  UNL     1      13.343 -11.658  -2.760  0.00  0.00    -0.460 OA
BRANCH  22  24
ATOM     23  C1  UNL     1      15.657 -11.839  -2.047  0.00  0.00    +0.048 C 
ATOM     24  C2  UNL     1      14.641 -12.104  -3.151  0.00  0.00    +0.229 C 
ENDBRANCH  22  24
ENDBRANCH  20  22
ENDBRANCH   1  20
TORSDOF 4
ENDMDL
MODEL 7
REMARK minimizedAffinity -5.25579166
REMARK minimizedRMSD -1
REMARK  Name = /home/tchapet/Post-Doc/ARTICLES-DOSSIERS-DES-ARTICLES-EN-REDACTION/NOUVELS-AXES-DE-RECHERCHE-A-REGARDER-URGEMMENT/ARTICLES-EN-REDACTIONS/ARTICLE_MVOTO/Paper2_JCIM/docking_rerun/ligands/5081.pdb
REMARK  6 active torsions:
REMARK  status: ('A' for Active; 'I' for Inactive)
REMARK    1  A    between atoms: C1_1  and  C2_2
REMARK    2  A    between atoms: C2_2  and  O1_3
REMARK    3  A    between atoms: O1_3  and  C3_4
REMARK    4  A    between atoms: C3_4  and  C4_6
REMARK    5  A    between atoms: N3_12  and  C8_13
REMARK    6  A    between atoms: C14_20  and  N4_22
REMARK                            x       y       z     vdW  Elec       q    Type
REMARK                         _______ _______ _______ _____ _____    ______ ____
ROOT
ATOM      1  C4  UNL     1      -9.052  -2.226  24.683  0.00  0.00    +0.170 A 
ATOM      2  N1  UNL     1     -10.283  -2.690  24.378  0.00  0.00    -0.228 NA
ATOM      3  C5  UNL     1     -10.617  -2.051  23.238  0.00  0.00    +0.205 A 
ATOM      4  N2  UNL     1      -9.659  -1.199  22.820  0.00  0.00    -0.300 N 
ATOM      5  C6  UNL     1      -8.657  -1.318  23.706  0.00  0.00    +0.075 A 
ATOM      6  C7  UNL     1      -7.405  -0.510  23.606  0.00  0.00    +0.163 C 
ATOM      7  N3  UNL     1      -7.749   0.895  23.810  0.00  0.00    -0.295 N 
ATOM      8  C8  UNL     1      -7.276   1.600  25.006  0.00  0.00    +0.132 C 
ATOM      9  C9  UNL     1      -8.568   1.601  22.851  0.00  0.00    +0.249 C 
ATOM     10  O3  UNL     1      -8.784   2.834  23.021  0.00  0.00    -0.270 OA
ATOM     11  C10 UNL     1      -9.144   0.948  21.640  0.00  0.00    +0.063 A 
ATOM     12  C11 UNL     1      -9.687  -0.368  21.644  0.00  0.00    +0.060 A 
ATOM     13  C12 UNL     1     -10.276  -0.872  20.472  0.00  0.00    +0.029 A 
ATOM     14  C13 UNL     1     -10.329  -0.104  19.309  0.00  0.00    +0.033 A 
ATOM     15  C14 UNL     1      -9.799   1.194  19.295  0.00  0.00    +0.101 A 
ATOM     16  C15 UNL     1      -9.218   1.709  20.457  0.00  0.00    +0.045 A 
ENDROOT
BRANCH  15  17
ATOM     17  N4  UNL     1      -9.839   2.013  18.119  0.00  0.00    -0.072 NA
ATOM     18  N5  UNL     1     -10.261   1.596  17.040  0.00  0.00    -0.162 NA
ATOM     19  N6  UNL     1     -10.682   1.183  15.961  0.00  0.00    +0.068 NA
ENDBRANCH  15  17
BRANCH   1  20
ATOM     20  C3  UNL     1      -8.336  -2.647  25.901  0.00  0.00    +0.360 C 
ATOM     21  O2  UNL     1      -8.255  -1.887  26.901  0.00  0.00    -0.243 OA
BRANCH  20  22
ATOM     22  O1  UNL     1      -7.754  -3.919  25.932  0.00  0.00    -0.460 OA
BRANCH  22  24
ATOM     23  C1  UNL     1      -9.400  -5.501  26.759  0.00  0.00    +0.048 C 
ATOM     24  C2  UNL     1      -8.021  -4.882  26.952  0.00  0.00    +0.229 C 
ENDBRANCH  22  24
ENDBRANCH  20  22
ENDBRANCH   1  20
TORSDOF 4
ENDMDL
MODEL 8
REMARK minimizedAffinity -5.22352076
REMARK minimizedRMSD -1
REMARK  Name = /home/tchapet/Post-Doc/ARTICLES-DOSSIERS-DES-ARTICLES-EN-REDACTION/NOUVELS-AXES-DE-RECHERCHE-A-REGARDER-URGEMMENT/ARTICLES-EN-REDACTIONS/ARTICLE_MVOTO/Paper2_JCIM/docking_rerun/ligands/5081.pdb
REMARK  6 active torsions:
REMARK  status: ('A' for Active; 'I' for Inactive)
REMARK    1  A    between atoms: C1_1  and  C2_2
REMARK    2  A    between atoms: C2_2  and  O1_3
REMARK    3  A    between atoms: O1_3  and  C3_4
REMARK    4  A    between atoms: C3_4  and  C4_6
REMARK    5  A    between atoms: N3_12  and  C8_13
REMARK    6  A    between atoms: C14_20  and  N4_22
REMARK                            x       y       z     vdW  Elec       q    Type
REMARK                         _______ _______ _______ _____ _____    ______ ____
ROOT
ATOM      1  C4  UNL     1      -1.467 -14.127  16.530  0.00  0.00    +0.170 A 
ATOM      2  N1  UNL     1      -1.242 -14.934  17.589  0.00  0.00    -0.228 NA
ATOM      3  C5  UNL     1      -0.539 -15.970  17.088  0.00  0.00    +0.205 A 
ATOM      4  N2  UNL     1      -0.322 -15.856  15.761  0.00  0.00    -0.300 N 
ATOM      5  C6  UNL     1      -0.879 -14.688  15.402  0.00  0.00    +0.075 A 
ATOM      6  C7  UNL     1      -0.875 -14.205  13.989  0.00  0.00    +0.163 C 
ATOM      7  N3  UNL     1      -1.684 -15.121  13.189  0.00  0.00    -0.295 N 
ATOM      8  C8  UNL     1      -2.949 -14.662  12.605  0.00  0.00    +0.132 C 
ATOM      9  C9  UNL     1      -1.262 -16.487  12.977  0.00  0.00    +0.249 C 
ATOM     10  O3  UNL     1      -1.948 -17.228  12.219  0.00  0.00    -0.270 OA
ATOM     11  C10 UNL     1      -0.024 -17.056  13.585  0.00  0.00    +0.063 A 
ATOM     12  C11 UNL     1       0.395 -16.775  14.916  0.00  0.00    +0.060 A 
ATOM     13  C12 UNL     1       1.535 -17.417  15.427  0.00  0.00    +0.029 A 
ATOM     14  C13 UNL     1       2.261 -18.317  14.647  0.00  0.00    +0.033 A 
ATOM     15  C14 UNL     1       1.856 -18.602  13.336  0.00  0.00    +0.101 A 
ATOM     16  C15 UNL     1       0.719 -17.976  12.819  0.00  0.00    +0.045 A 
ENDROOT
BRANCH  15  17
ATOM     17  N4  UNL     1       2.577 -19.524  12.506  0.00  0.00    -0.072 NA
ATOM     18  N5  UNL     1       3.173 -19.168  11.490  0.00  0.00    -0.162 NA
ATOM     19  N6  UNL     1       3.769 -18.815  10.474  0.00  0.00    +0.068 NA
ENDBRANCH  15  17
BRANCH   1  20
ATOM     20  C3  UNL     1      -2.255 -12.887  16.645  0.00  0.00    +0.360 C 
ATOM     21  O2  UNL     1      -3.449 -12.911  17.046  0.00  0.00    -0.243 OA
BRANCH  20  22
ATOM     22  O1  UNL     1      -1.648 -11.671  16.310  0.00  0.00    -0.460 OA
BRANCH  22  24
ATOM     23  C1  UNL     1      -0.851 -10.190  18.062  0.00  0.00    +0.048 C 
ATOM     24  C2  UNL     1      -0.478 -11.172  16.957  0.00  0.00    +0.229 C 
ENDBRANCH  22  24
ENDBRANCH  20  22
ENDBRANCH   1  20
TORSDOF 4
ENDMDL
MODEL 9
REMARK minimizedAffinity -5.20421648
REMARK minimizedRMSD -1
REMARK  Name = /home/tchapet/Post-Doc/ARTICLES-DOSSIERS-DES-ARTICLES-EN-REDACTION/NOUVELS-AXES-DE-RECHERCHE-A-REGARDER-URGEMMENT/ARTICLES-EN-REDACTIONS/ARTICLE_MVOTO/Paper2_JCIM/docking_rerun/ligands/5081.pdb
REMARK  6 active torsions:
REMARK  status: ('A' for Active; 'I' for Inactive)
REMARK    1  A    between atoms: C1_1  and  C2_2
REMARK    2  A    between atoms: C2_2  and  O1_3
REMARK    3  A    between atoms: O1_3  and  C3_4
REMARK    4  A    between atoms: C3_4  and  C4_6
REMARK    5  A    between atoms: N3_12  and  C8_13
REMARK    6  A    between atoms: C14_20  and  N4_22
REMARK                            x       y       z     vdW  Elec       q    Type
REMARK                         _______ _______ _______ _____ _____    ______ ____
ROOT
ATOM      1  C4  UNL     1      16.321  -6.372   0.306  0.00  0.00    +0.170 A 
ATOM      2  N1  UNL     1      17.610  -6.348   0.705  0.00  0.00    -0.228 NA
ATOM      3  C5  UNL     1      17.565  -5.932   1.987  0.00  0.00    +0.205 A 
ATOM      4  N2  UNL     1      16.308  -5.682   2.408  0.00  0.00    -0.300 N 
ATOM      5  C6  UNL     1      15.513  -5.979   1.367  0.00  0.00    +0.075 A 
ATOM      6  C7  UNL     1      14.029  -5.809   1.424  0.00  0.00    +0.163 C 
ATOM      7  N3  UNL     1      13.736  -4.384   1.561  0.00  0.00    -0.295 N 
ATOM      8  C8  UNL     1      13.074  -3.665   0.468  0.00  0.00    +0.132 C 
ATOM      9  C9  UNL     1      14.107  -3.666   2.758  0.00  0.00    +0.249 C 
ATOM     10  O3  UNL     1      13.772  -2.453   2.872  0.00  0.00    -0.270 OA
ATOM     11  C10 UNL     1      14.839  -4.302   3.892  0.00  0.00    +0.063 A 
ATOM     12  C11 UNL     1      15.901  -5.232   3.714  0.00  0.00    +0.060 A 
ATOM     13  C12 UNL     1      16.581  -5.722   4.842  0.00  0.00    +0.029 A 
ATOM     14  C13 UNL     1      16.225  -5.314   6.127  0.00  0.00    +0.033 A 
ATOM     15  C14 UNL     1      15.182  -4.397   6.313  0.00  0.00    +0.101 A 
ATOM     16  C15 UNL     1      14.503  -3.896   5.199  0.00  0.00    +0.045 A 
ENDROOT
BRANCH  15  17
ATOM     17  N4  UNL     1      14.791  -3.953   7.619  0.00  0.00    -0.072 NA
ATOM     18  N5  UNL     1      14.280  -2.850   7.815  0.00  0.00    -0.162 NA
ATOM     19  N6  UNL     1      13.771  -1.748   8.013  0.00  0.00    +0.068 NA
ENDBRANCH  15  17
BRANCH   1  20
ATOM     20  C3  UNL     1      15.934  -6.734  -1.069  0.00  0.00    +0.360 C 
ATOM     21  O2  UNL     1      15.586  -7.910  -1.358  0.00  0.00    -0.243 OA
BRANCH  20  22
ATOM     22  O1  UNL     1      15.948  -5.741  -2.056  0.00  0.00    -0.460 OA
BRANCH  22  24
ATOM     23  C1  UNL     1      17.405  -3.798  -2.083  0.00  0.00    +0.048 C 
ATOM     24  C2  UNL     1      16.018  -4.345  -1.766  0.00  0.00    +0.229 C 
ENDBRANCH  22  24
ENDBRANCH  20  22
ENDBRANCH   1  20
TORSDOF 4
ENDMDL
