MODEL 1
REMARK minimizedAffinity -11.7028866
REMARK minimizedRMSD -1
REMARK  Name = /home/tchapet/Post-Doc/ARTICLES-DOSSIERS-DES-ARTICLES-EN-REDACTION/NOUVELS-AXES-DE-RECHERCHE-A-REGARDER-URGEMMENT/ARTICLES-EN-REDACTIONS/ARTICLE_MVOTO/Paper2_JCIM/docking_rerun/ligands/9168.pdb
REMARK  0 active torsions:
REMARK  status: ('A' for Active; 'I' for Inactive)
REMARK                            x       y       z     vdW  Elec       q    Type
REMARK                         _______ _______ _______ _____ _____    ______ ____
ROOT
ATOM      1  C1  UNL     1     -10.058  16.566  21.533  0.00  0.00    +0.001 A 
ATOM      2  C2  UNL     1      -8.905  17.244  21.154  0.00  0.00    +0.001 A 
ATOM      3  C3  UNL     1      -8.038  17.734  22.126  0.00  0.00    +0.008 A 
ATOM      4  C4  UNL     1      -8.320  17.549  23.490  0.00  0.00    -0.017 A 
ATOM      5  C5  UNL     1      -9.490  16.861  23.901  0.00  0.00    -0.010 A 
ATOM      6  C6  UNL     1     -10.355  16.373  22.884  0.00  0.00    +0.009 A 
ATOM      7  C7  UNL     1      -9.746  16.691  25.302  0.00  0.00    -0.010 A 
ATOM      8  C8  UNL     1     -10.888  16.018  25.768  0.00  0.00    +0.010 A 
ATOM      9  C9  UNL     1     -11.138  15.853  27.121  0.00  0.00    +0.010 A 
ATOM     10  C10 UNL     1     -10.262  16.348  28.107  0.00  0.00    -0.010 A 
ATOM     11  C11 UNL     1      -9.090  17.037  27.673  0.00  0.00    -0.010 A 
ATOM     12  C12 UNL     1      -8.829  17.210  26.268  0.00  0.00    -0.010 A 
ATOM     13  C13 UNL     1      -7.679  17.887  25.795  0.00  0.00    +0.010 A 
ATOM     14  C14 UNL     1      -7.435  18.050  24.438  0.00  0.00    +0.009 A 
ATOM     15  C15 UNL     1      -8.214  17.532  28.659  0.00  0.00    +0.010 A 
ATOM     16  C16 UNL     1      -8.463  17.366  30.012  0.00  0.00    +0.010 A 
ATOM     17  C17 UNL     1      -9.606  16.693  30.478  0.00  0.00    -0.010 A 
ATOM     18  C18 UNL     1     -10.523  16.174  29.512  0.00  0.00    -0.010 A 
ATOM     19  C19 UNL     1     -11.673  15.497  29.986  0.00  0.00    +0.010 A 
ATOM     20  C20 UNL     1     -11.917  15.335  31.342  0.00  0.00    +0.009 A 
ATOM     21  C21 UNL     1     -11.032  15.835  32.290  0.00  0.00    -0.017 A 
ATOM     22  C22 UNL     1      -9.860  16.523  31.880  0.00  0.00    -0.010 A 
ATOM     23  C23 UNL     1      -8.997  17.011  32.896  0.00  0.00    +0.009 A 
ATOM     24  C24 UNL     1      -9.292  16.818  34.248  0.00  0.00    +0.001 A 
ATOM     25  C25 UNL     1     -10.447  16.140  34.626  0.00  0.00    +0.001 A 
ATOM     26  C26 UNL     1     -11.314  15.650  33.654  0.00  0.00    +0.008 A 
ENDROOT
TORSDOF 0
ENDMDL
MODEL 2
REMARK minimizedAffinity -11.6985588
REMARK minimizedRMSD -1
REMARK  Name = /home/tchapet/Post-Doc/ARTICLES-DOSSIERS-DES-ARTICLES-EN-REDACTION/NOUVELS-AXES-DE-RECHERCHE-A-REGARDER-URGEMMENT/ARTICLES-EN-REDACTIONS/ARTICLE_MVOTO/Paper2_JCIM/docking_rerun/ligands/9168.pdb
REMARK  0 active torsions:
REMARK  status: ('A' for Active; 'I' for Inactive)
REMARK                            x       y       z     vdW  Elec       q    Type
REMARK                         _______ _______ _______ _____ _____    ______ ____
ROOT
ATOM      1  C1  UNL     1      -9.164  16.874  34.235  0.00  0.00    +0.001 A 
ATOM      2  C2  UNL     1     -10.319  16.202  34.621  0.00  0.00    +0.001 A 
ATOM      3  C3  UNL     1     -11.193  15.715  33.654  0.00  0.00    +0.008 A 
ATOM      4  C4  UNL     1     -10.917  15.897  32.288  0.00  0.00    -0.017 A 
ATOM      5  C5  UNL     1      -9.745  16.579  31.871  0.00  0.00    -0.010 A 
ATOM      6  C6  UNL     1      -8.874  17.064  32.882  0.00  0.00    +0.009 A 
ATOM      7  C7  UNL     1      -9.497  16.745  30.468  0.00  0.00    -0.010 A 
ATOM      8  C8  UNL     1      -8.353  17.411  29.995  0.00  0.00    +0.010 A 
ATOM      9  C9  UNL     1      -8.110  17.575  28.641  0.00  0.00    +0.010 A 
ATOM     10  C10 UNL     1      -8.994  17.082  27.660  0.00  0.00    -0.010 A 
ATOM     11  C11 UNL     1     -10.166  16.399  28.101  0.00  0.00    -0.010 A 
ATOM     12  C12 UNL     1     -10.421  16.229  29.508  0.00  0.00    -0.010 A 
ATOM     13  C13 UNL     1     -11.572  15.558  29.988  0.00  0.00    +0.010 A 
ATOM     14  C14 UNL     1     -11.809  15.398  31.345  0.00  0.00    +0.009 A 
ATOM     15  C15 UNL     1     -11.049  15.906  27.120  0.00  0.00    +0.010 A 
ATOM     16  C16 UNL     1     -10.807  16.069  25.765  0.00  0.00    +0.010 A 
ATOM     17  C17 UNL     1      -9.663  16.736  25.293  0.00  0.00    -0.010 A 
ATOM     18  C18 UNL     1      -8.739  17.252  26.253  0.00  0.00    -0.010 A 
ATOM     19  C19 UNL     1      -7.588  17.923  25.773  0.00  0.00    +0.010 A 
ATOM     20  C20 UNL     1      -7.351  18.083  24.415  0.00  0.00    +0.009 A 
ATOM     21  C21 UNL     1      -8.242  17.584  23.472  0.00  0.00    -0.017 A 
ATOM     22  C22 UNL     1      -9.415  16.902  23.889  0.00  0.00    -0.010 A 
ATOM     23  C23 UNL     1     -10.286  16.417  22.878  0.00  0.00    +0.009 A 
ATOM     24  C24 UNL     1      -9.996  16.606  21.525  0.00  0.00    +0.001 A 
ATOM     25  C25 UNL     1      -8.841  17.279  21.139  0.00  0.00    +0.001 A 
ATOM     26  C26 UNL     1      -7.967  17.766  22.106  0.00  0.00    +0.008 A 
ENDROOT
TORSDOF 0
ENDMDL
MODEL 3
REMARK minimizedAffinity -11.448494
REMARK minimizedRMSD -1
REMARK  Name = /home/tchapet/Post-Doc/ARTICLES-DOSSIERS-DES-ARTICLES-EN-REDACTION/NOUVELS-AXES-DE-RECHERCHE-A-REGARDER-URGEMMENT/ARTICLES-EN-REDACTIONS/ARTICLE_MVOTO/Paper2_JCIM/docking_rerun/ligands/9168.pdb
REMARK  0 active torsions:
REMARK  status: ('A' for Active; 'I' for Inactive)
REMARK                            x       y       z     vdW  Elec       q    Type
REMARK                         _______ _______ _______ _____ _____    ______ ____
ROOT
ATOM      1  C1  UNL     1     -11.723  15.253  33.769  0.00  0.00    +0.001 A 
ATOM      2  C2  UNL     1     -10.808  15.846  34.632  0.00  0.00    +0.001 A 
ATOM      3  C3  UNL     1      -9.726  16.552  34.116  0.00  0.00    +0.008 A 
ATOM      4  C4  UNL     1      -9.548  16.669  32.727  0.00  0.00    -0.017 A 
ATOM      5  C5  UNL     1     -10.469  16.072  31.827  0.00  0.00    -0.010 A 
ATOM      6  C6  UNL     1     -11.563  15.359  32.386  0.00  0.00    +0.009 A 
ATOM      7  C7  UNL     1     -10.256  16.213  30.415  0.00  0.00    -0.010 A 
ATOM      8  C8  UNL     1     -11.134  15.645  29.477  0.00  0.00    +0.010 A 
ATOM      9  C9  UNL     1     -10.931  15.778  28.113  0.00  0.00    +0.010 A 
ATOM     10  C10 UNL     1      -9.836  16.491  27.587  0.00  0.00    -0.010 A 
ATOM     11  C11 UNL     1      -8.922  17.084  28.510  0.00  0.00    -0.010 A 
ATOM     12  C12 UNL     1      -9.131  16.946  29.927  0.00  0.00    -0.010 A 
ATOM     13  C13 UNL     1      -8.249  17.518  30.876  0.00  0.00    +0.010 A 
ATOM     14  C14 UNL     1      -8.457  17.380  32.241  0.00  0.00    +0.009 A 
ATOM     15  C15 UNL     1      -7.827  17.798  27.984  0.00  0.00    +0.010 A 
ATOM     16  C16 UNL     1      -7.624  17.932  26.620  0.00  0.00    +0.010 A 
ATOM     17  C17 UNL     1      -8.502  17.362  25.682  0.00  0.00    -0.010 A 
ATOM     18  C18 UNL     1      -9.627  16.629  26.169  0.00  0.00    -0.010 A 
ATOM     19  C19 UNL     1     -10.509  16.058  25.221  0.00  0.00    +0.010 A 
ATOM     20  C20 UNL     1     -10.301  16.195  23.856  0.00  0.00    +0.009 A 
ATOM     21  C21 UNL     1      -9.210  16.906  23.370  0.00  0.00    -0.017 A 
ATOM     22  C22 UNL     1      -8.289  17.504  24.270  0.00  0.00    -0.010 A 
ATOM     23  C23 UNL     1      -7.195  18.216  23.711  0.00  0.00    +0.009 A 
ATOM     24  C24 UNL     1      -7.034  18.323  22.328  0.00  0.00    +0.001 A 
ATOM     25  C25 UNL     1      -7.950  17.729  21.465  0.00  0.00    +0.001 A 
ATOM     26  C26 UNL     1      -9.032  17.024  21.981  0.00  0.00    +0.008 A 
ENDROOT
TORSDOF 0
ENDMDL
MODEL 4
REMARK minimizedAffinity -11.4333982
REMARK minimizedRMSD -1
REMARK  Name = /home/tchapet/Post-Doc/ARTICLES-DOSSIERS-DES-ARTICLES-EN-REDACTION/NOUVELS-AXES-DE-RECHERCHE-A-REGARDER-URGEMMENT/ARTICLES-EN-REDACTIONS/ARTICLE_MVOTO/Paper2_JCIM/docking_rerun/ligands/9168.pdb
REMARK  0 active torsions:
REMARK  status: ('A' for Active; 'I' for Inactive)
REMARK                            x       y       z     vdW  Elec       q    Type
REMARK                         _______ _______ _______ _____ _____    ______ ____
ROOT
ATOM      1  C1  UNL     1      -6.973  18.270  22.344  0.00  0.00    +0.001 A 
ATOM      2  C2  UNL     1      -7.898  17.706  21.472  0.00  0.00    +0.001 A 
ATOM      3  C3  UNL     1      -9.003  17.029  21.978  0.00  0.00    +0.008 A 
ATOM      4  C4  UNL     1      -9.192  16.909  23.365  0.00  0.00    -0.017 A 
ATOM      5  C5  UNL     1      -8.261  17.477  24.274  0.00  0.00    -0.010 A 
ATOM      6  C6  UNL     1      -7.144  18.162  23.726  0.00  0.00    +0.009 A 
ATOM      7  C7  UNL     1      -8.486  17.335  25.684  0.00  0.00    -0.010 A 
ATOM      8  C8  UNL     1      -7.600  17.876  26.630  0.00  0.00    +0.010 A 
ATOM      9  C9  UNL     1      -7.814  17.741  27.993  0.00  0.00    +0.010 A 
ATOM     10  C10 UNL     1      -8.932  17.055  28.508  0.00  0.00    -0.010 A 
ATOM     11  C11 UNL     1      -9.856  16.493  27.577  0.00  0.00    -0.010 A 
ATOM     12  C12 UNL     1      -9.635  16.631  26.161  0.00  0.00    -0.010 A 
ATOM     13  C13 UNL     1     -10.526  16.088  25.204  0.00  0.00    +0.010 A 
ATOM     14  C14 UNL     1     -10.306  16.227  23.841  0.00  0.00    +0.009 A 
ATOM     15  C15 UNL     1     -10.974  15.807  28.092  0.00  0.00    +0.010 A 
ATOM     16  C16 UNL     1     -11.189  15.672  29.454  0.00  0.00    +0.010 A 
ATOM     17  C17 UNL     1     -10.302  16.212  30.401  0.00  0.00    -0.010 A 
ATOM     18  C18 UNL     1      -9.154  16.916  29.924  0.00  0.00    -0.010 A 
ATOM     19  C19 UNL     1      -8.262  17.460  30.881  0.00  0.00    +0.010 A 
ATOM     20  C20 UNL     1      -8.483  17.321  32.243  0.00  0.00    +0.009 A 
ATOM     21  C21 UNL     1      -9.597  16.638  32.719  0.00  0.00    -0.017 A 
ATOM     22  C22 UNL     1     -10.528  16.071  31.811  0.00  0.00    -0.010 A 
ATOM     23  C23 UNL     1     -11.645  15.386  32.359  0.00  0.00    +0.009 A 
ATOM     24  C24 UNL     1     -11.817  15.278  33.741  0.00  0.00    +0.001 A 
ATOM     25  C25 UNL     1     -10.891  15.842  34.612  0.00  0.00    +0.001 A 
ATOM     26  C26 UNL     1      -9.786  16.519  34.107  0.00  0.00    +0.008 A 
ENDROOT
TORSDOF 0
ENDMDL
MODEL 5
REMARK minimizedAffinity -10.0760593
REMARK minimizedRMSD -1
REMARK  Name = /home/tchapet/Post-Doc/ARTICLES-DOSSIERS-DES-ARTICLES-EN-REDACTION/NOUVELS-AXES-DE-RECHERCHE-A-REGARDER-URGEMMENT/ARTICLES-EN-REDACTIONS/ARTICLE_MVOTO/Paper2_JCIM/docking_rerun/ligands/9168.pdb
REMARK  0 active torsions:
REMARK  status: ('A' for Active; 'I' for Inactive)
REMARK                            x       y       z     vdW  Elec       q    Type
REMARK                         _______ _______ _______ _____ _____    ______ ____
ROOT
ATOM      1  C1  UNL     1     -13.017  12.817  31.955  0.00  0.00    +0.001 A 
ATOM      2  C2  UNL     1     -13.875  12.027  31.197  0.00  0.00    +0.001 A 
ATOM      3  C3  UNL     1     -13.755  12.007  29.811  0.00  0.00    +0.008 A 
ATOM      4  C4  UNL     1     -12.773  12.780  29.169  0.00  0.00    -0.017 A 
ATOM      5  C5  UNL     1     -11.887  13.593  29.921  0.00  0.00    -0.010 A 
ATOM      6  C6  UNL     1     -12.035  13.592  31.334  0.00  0.00    +0.009 A 
ATOM      7  C7  UNL     1     -10.896  14.369  29.232  0.00  0.00    -0.010 A 
ATOM      8  C8  UNL     1      -9.991  15.192  29.924  0.00  0.00    +0.010 A 
ATOM      9  C9  UNL     1      -9.034  15.944  29.261  0.00  0.00    +0.010 A 
ATOM     10  C10 UNL     1      -8.910  15.925  27.858  0.00  0.00    -0.010 A 
ATOM     11  C11 UNL     1      -9.811  15.100  27.120  0.00  0.00    -0.010 A 
ATOM     12  C12 UNL     1     -10.807  14.319  27.807  0.00  0.00    -0.010 A 
ATOM     13  C13 UNL     1     -11.720  13.488  27.113  0.00  0.00    +0.010 A 
ATOM     14  C14 UNL     1     -12.677  12.739  27.783  0.00  0.00    +0.009 A 
ATOM     15  C15 UNL     1      -9.687  15.081  25.717  0.00  0.00    +0.010 A 
ATOM     16  C16 UNL     1      -8.730  15.831  25.054  0.00  0.00    +0.010 A 
ATOM     17  C17 UNL     1      -7.825  16.655  25.746  0.00  0.00    -0.010 A 
ATOM     18  C18 UNL     1      -7.914  16.706  27.172  0.00  0.00    -0.010 A 
ATOM     19  C19 UNL     1      -7.001  17.537  27.865  0.00  0.00    +0.010 A 
ATOM     20  C20 UNL     1      -6.044  18.286  27.195  0.00  0.00    +0.009 A 
ATOM     21  C21 UNL     1      -5.948  18.245  25.809  0.00  0.00    -0.017 A 
ATOM     22  C22 UNL     1      -6.834  17.430  25.056  0.00  0.00    -0.010 A 
ATOM     23  C23 UNL     1      -6.686  17.432  23.644  0.00  0.00    +0.009 A 
ATOM     24  C24 UNL     1      -5.704  18.207  23.023  0.00  0.00    +0.001 A 
ATOM     25  C25 UNL     1      -4.846  18.997  23.781  0.00  0.00    +0.001 A 
ATOM     26  C26 UNL     1      -4.966  19.018  25.167  0.00  0.00    +0.008 A 
ENDROOT
TORSDOF 0
ENDMDL
MODEL 6
REMARK minimizedAffinity -10.0366449
REMARK minimizedRMSD -1
REMARK  Name = /home/tchapet/Post-Doc/ARTICLES-DOSSIERS-DES-ARTICLES-EN-REDACTION/NOUVELS-AXES-DE-RECHERCHE-A-REGARDER-URGEMMENT/ARTICLES-EN-REDACTIONS/ARTICLE_MVOTO/Paper2_JCIM/docking_rerun/ligands/9168.pdb
REMARK  0 active torsions:
REMARK  status: ('A' for Active; 'I' for Inactive)
REMARK                            x       y       z     vdW  Elec       q    Type
REMARK                         _______ _______ _______ _____ _____    ______ ____
ROOT
ATOM      1  C1  UNL     1      -3.569  18.792  24.220  0.00  0.00    +0.001 A 
ATOM      2  C2  UNL     1      -3.869  18.809  22.862  0.00  0.00    +0.001 A 
ATOM      3  C3  UNL     1      -5.063  18.258  22.409  0.00  0.00    +0.008 A 
ATOM      4  C4  UNL     1      -5.971  17.683  23.314  0.00  0.00    -0.017 A 
ATOM      5  C5  UNL     1      -5.687  17.654  24.704  0.00  0.00    -0.010 A 
ATOM      6  C6  UNL     1      -4.460  18.225  25.135  0.00  0.00    +0.009 A 
ATOM      7  C7  UNL     1      -6.638  17.059  25.599  0.00  0.00    -0.010 A 
ATOM      8  C8  UNL     1      -6.412  17.003  26.985  0.00  0.00    +0.010 A 
ATOM      9  C9  UNL     1      -7.328  16.428  27.852  0.00  0.00    +0.010 A 
ATOM     10  C10 UNL     1      -8.538  15.869  27.395  0.00  0.00    -0.010 A 
ATOM     11  C11 UNL     1      -8.804  15.909  25.994  0.00  0.00    -0.010 A 
ATOM     12  C12 UNL     1      -7.853  16.504  25.091  0.00  0.00    -0.010 A 
ATOM     13  C13 UNL     1      -8.078  16.564  23.694  0.00  0.00    +0.010 A 
ATOM     14  C14 UNL     1      -7.157  17.140  22.832  0.00  0.00    +0.009 A 
ATOM     15  C15 UNL     1     -10.014  15.350  25.538  0.00  0.00    +0.010 A 
ATOM     16  C16 UNL     1     -10.930  14.775  26.404  0.00  0.00    +0.010 A 
ATOM     17  C17 UNL     1     -10.704  14.718  27.790  0.00  0.00    -0.010 A 
ATOM     18  C18 UNL     1      -9.488  15.273  28.298  0.00  0.00    -0.010 A 
ATOM     19  C19 UNL     1      -9.264  15.214  29.695  0.00  0.00    +0.010 A 
ATOM     20  C20 UNL     1     -10.185  14.638  30.557  0.00  0.00    +0.009 A 
ATOM     21  C21 UNL     1     -11.371  14.095  30.075  0.00  0.00    -0.017 A 
ATOM     22  C22 UNL     1     -11.655  14.124  28.684  0.00  0.00    -0.010 A 
ATOM     23  C23 UNL     1     -12.882  13.553  28.254  0.00  0.00    +0.009 A 
ATOM     24  C24 UNL     1     -13.773  12.986  29.168  0.00  0.00    +0.001 A 
ATOM     25  C25 UNL     1     -13.473  12.969  30.527  0.00  0.00    +0.001 A 
ATOM     26  C26 UNL     1     -12.279  13.520  30.980  0.00  0.00    +0.008 A 
ENDROOT
TORSDOF 0
ENDMDL
MODEL 7
REMARK minimizedAffinity -9.94757271
REMARK minimizedRMSD -1
REMARK  Name = /home/tchapet/Post-Doc/ARTICLES-DOSSIERS-DES-ARTICLES-EN-REDACTION/NOUVELS-AXES-DE-RECHERCHE-A-REGARDER-URGEMMENT/ARTICLES-EN-REDACTIONS/ARTICLE_MVOTO/Paper2_JCIM/docking_rerun/ligands/9168.pdb
REMARK  0 active torsions:
REMARK  status: ('A' for Active; 'I' for Inactive)
REMARK                            x       y       z     vdW  Elec       q    Type
REMARK                         _______ _______ _______ _____ _____    ______ ____
ROOT
ATOM      1  C1  UNL     1     -12.533  14.564  34.656  0.00  0.00    +0.001 A 
ATOM      2  C2  UNL     1     -13.249  13.377  34.545  0.00  0.00    +0.001 A 
ATOM      3  C3  UNL     1     -13.356  12.744  33.311  0.00  0.00    +0.008 A 
ATOM      4  C4  UNL     1     -12.745  13.297  32.172  0.00  0.00    -0.017 A 
ATOM      5  C5  UNL     1     -12.009  14.506  32.261  0.00  0.00    -0.010 A 
ATOM      6  C6  UNL     1     -11.918  15.127  33.535  0.00  0.00    +0.009 A 
ATOM      7  C7  UNL     1     -11.398  15.041  31.078  0.00  0.00    -0.010 A 
ATOM      8  C8  UNL     1     -10.657  16.234  31.104  0.00  0.00    +0.010 A 
ATOM      9  C9  UNL     1     -10.067  16.753  29.963  0.00  0.00    +0.010 A 
ATOM     10  C10 UNL     1     -10.173  16.115  28.712  0.00  0.00    -0.010 A 
ATOM     11  C11 UNL     1     -10.917  14.899  28.644  0.00  0.00    -0.010 A 
ATOM     12  C12 UNL     1     -11.532  14.358  29.829  0.00  0.00    -0.010 A 
ATOM     13  C13 UNL     1     -12.280  13.156  29.806  0.00  0.00    +0.010 A 
ATOM     14  C14 UNL     1     -12.869  12.642  30.952  0.00  0.00    +0.009 A 
ATOM     15  C15 UNL     1     -11.024  14.261  27.393  0.00  0.00    +0.010 A 
ATOM     16  C16 UNL     1     -10.434  14.779  26.252  0.00  0.00    +0.010 A 
ATOM     17  C17 UNL     1      -9.693  15.973  26.278  0.00  0.00    -0.010 A 
ATOM     18  C18 UNL     1      -9.558  16.655  27.527  0.00  0.00    -0.010 A 
ATOM     19  C19 UNL     1      -8.811  17.858  27.550  0.00  0.00    +0.010 A 
ATOM     20  C20 UNL     1      -8.222  18.372  26.404  0.00  0.00    +0.009 A 
ATOM     21  C21 UNL     1      -8.346  17.717  25.184  0.00  0.00    -0.017 A 
ATOM     22  C22 UNL     1      -9.082  16.506  25.095  0.00  0.00    -0.010 A 
ATOM     23  C23 UNL     1      -9.173  15.887  23.821  0.00  0.00    +0.009 A 
ATOM     24  C24 UNL     1      -8.558  16.449  22.699  0.00  0.00    +0.001 A 
ATOM     25  C25 UNL     1      -7.841  17.637  22.811  0.00  0.00    +0.001 A 
ATOM     26  C26 UNL     1      -7.735  18.269  24.045  0.00  0.00    +0.008 A 
ENDROOT
TORSDOF 0
ENDMDL
MODEL 8
REMARK minimizedAffinity -9.89189243
REMARK minimizedRMSD -1
REMARK  Name = /home/tchapet/Post-Doc/ARTICLES-DOSSIERS-DES-ARTICLES-EN-REDACTION/NOUVELS-AXES-DE-RECHERCHE-A-REGARDER-URGEMMENT/ARTICLES-EN-REDACTIONS/ARTICLE_MVOTO/Paper2_JCIM/docking_rerun/ligands/9168.pdb
REMARK  0 active torsions:
REMARK  status: ('A' for Active; 'I' for Inactive)
REMARK                            x       y       z     vdW  Elec       q    Type
REMARK                         _______ _______ _______ _____ _____    ______ ____
ROOT
ATOM      1  C1  UNL     1      -8.782  16.384  22.880  0.00  0.00    +0.001 A 
ATOM      2  C2  UNL     1      -8.071  17.574  22.992  0.00  0.00    +0.001 A 
ATOM      3  C3  UNL     1      -7.955  18.198  24.230  0.00  0.00    +0.008 A 
ATOM      4  C4  UNL     1      -8.552  17.634  25.370  0.00  0.00    -0.017 A 
ATOM      5  C5  UNL     1      -9.282  16.421  25.280  0.00  0.00    -0.010 A 
ATOM      6  C6  UNL     1      -9.382  15.809  24.002  0.00  0.00    +0.009 A 
ATOM      7  C7  UNL     1      -9.878  15.875  26.466  0.00  0.00    -0.010 A 
ATOM      8  C8  UNL     1     -10.611  14.677  26.438  0.00  0.00    +0.010 A 
ATOM      9  C9  UNL     1     -11.189  14.147  27.581  0.00  0.00    +0.010 A 
ATOM     10  C10 UNL     1     -11.073  14.776  28.836  0.00  0.00    -0.010 A 
ATOM     11  C11 UNL     1     -10.334  15.995  28.905  0.00  0.00    -0.010 A 
ATOM     12  C12 UNL     1      -9.734  16.548  27.718  0.00  0.00    -0.010 A 
ATOM     13  C13 UNL     1      -8.993  17.755  27.742  0.00  0.00    +0.010 A 
ATOM     14  C14 UNL     1      -8.418  18.280  26.594  0.00  0.00    +0.009 A 
ATOM     15  C15 UNL     1     -10.218  16.625  30.160  0.00  0.00    +0.010 A 
ATOM     16  C16 UNL     1     -10.794  16.095  31.303  0.00  0.00    +0.010 A 
ATOM     17  C17 UNL     1     -11.529  14.897  31.275  0.00  0.00    -0.010 A 
ATOM     18  C18 UNL     1     -11.672  14.224  30.023  0.00  0.00    -0.010 A 
ATOM     19  C19 UNL     1     -12.413  13.017  29.999  0.00  0.00    +0.010 A 
ATOM     20  C20 UNL     1     -12.988  12.492  31.147  0.00  0.00    +0.009 A 
ATOM     21  C21 UNL     1     -12.854  13.138  32.371  0.00  0.00    -0.017 A 
ATOM     22  C22 UNL     1     -12.124  14.351  32.461  0.00  0.00    -0.010 A 
ATOM     23  C23 UNL     1     -12.024  14.963  33.739  0.00  0.00    +0.009 A 
ATOM     24  C24 UNL     1     -12.623  14.388  34.862  0.00  0.00    +0.001 A 
ATOM     25  C25 UNL     1     -13.335  13.198  34.749  0.00  0.00    +0.001 A 
ATOM     26  C26 UNL     1     -13.451  12.574  33.511  0.00  0.00    +0.008 A 
ENDROOT
TORSDOF 0
ENDMDL
MODEL 9
REMARK minimizedAffinity -9.65234852
REMARK minimizedRMSD -1
REMARK  Name = /home/tchapet/Post-Doc/ARTICLES-DOSSIERS-DES-ARTICLES-EN-REDACTION/NOUVELS-AXES-DE-RECHERCHE-A-REGARDER-URGEMMENT/ARTICLES-EN-REDACTIONS/ARTICLE_MVOTO/Paper2_JCIM/docking_rerun/ligands/9168.pdb
REMARK  0 active torsions:
REMARK  status: ('A' for Active; 'I' for Inactive)
REMARK                            x       y       z     vdW  Elec       q    Type
REMARK                         _______ _______ _______ _____ _____    ______ ____
ROOT
ATOM      1  C1  UNL     1     -13.699  13.877  29.542  0.00  0.00    +0.001 A 
ATOM      2  C2  UNL     1     -13.294  13.694  30.860  0.00  0.00    +0.001 A 
ATOM      3  C3  UNL     1     -12.000  14.032  31.241  0.00  0.00    +0.008 A 
ATOM      4  C4  UNL     1     -11.096  14.559  30.303  0.00  0.00    -0.017 A 
ATOM      5  C5  UNL     1     -11.486  14.756  28.953  0.00  0.00    -0.010 A 
ATOM      6  C6  UNL     1     -12.814  14.400  28.596  0.00  0.00    +0.009 A 
ATOM      7  C7  UNL     1     -10.536  15.296  28.023  0.00  0.00    -0.010 A 
ATOM      8  C8  UNL     1     -10.865  15.513  26.675  0.00  0.00    +0.010 A 
ATOM      9  C9  UNL     1      -9.951  16.033  25.774  0.00  0.00    +0.010 A 
ATOM     10  C10 UNL     1      -8.639  16.377  26.157  0.00  0.00    -0.010 A 
ATOM     11  C11 UNL     1      -8.267  16.173  27.519  0.00  0.00    -0.010 A 
ATOM     12  C12 UNL     1      -9.216  15.631  28.457  0.00  0.00    -0.010 A 
ATOM     13  C13 UNL     1      -8.888  15.411  29.817  0.00  0.00    +0.010 A 
ATOM     14  C14 UNL     1      -9.809  14.889  30.714  0.00  0.00    +0.009 A 
ATOM     15  C15 UNL     1      -6.956  16.516  27.902  0.00  0.00    +0.010 A 
ATOM     16  C16 UNL     1      -6.041  17.038  27.002  0.00  0.00    +0.010 A 
ATOM     17  C17 UNL     1      -6.370  17.254  25.653  0.00  0.00    -0.010 A 
ATOM     18  C18 UNL     1      -7.690  16.919  25.219  0.00  0.00    -0.010 A 
ATOM     19  C19 UNL     1      -8.018  17.139  23.859  0.00  0.00    +0.010 A 
ATOM     20  C20 UNL     1      -7.097  17.661  22.962  0.00  0.00    +0.009 A 
ATOM     21  C21 UNL     1      -5.811  17.991  23.373  0.00  0.00    -0.017 A 
ATOM     22  C22 UNL     1      -5.420  17.795  24.723  0.00  0.00    -0.010 A 
ATOM     23  C23 UNL     1      -4.092  18.150  25.080  0.00  0.00    +0.009 A 
ATOM     24  C24 UNL     1      -3.207  18.673  24.134  0.00  0.00    +0.001 A 
ATOM     25  C25 UNL     1      -3.612  18.856  22.816  0.00  0.00    +0.001 A 
ATOM     26  C26 UNL     1      -4.907  18.517  22.435  0.00  0.00    +0.008 A 
ENDROOT
TORSDOF 0
ENDMDL
