MODEL 1
REMARK minimizedAffinity -7.88441277
REMARK minimizedRMSD -1
REMARK  Name = /home/tchapet/Post-Doc/ARTICLES-DOSSIERS-DES-ARTICLES-EN-REDACTION/NOUVELS-AXES-DE-RECHERCHE-A-REGARDER-URGEMMENT/ARTICLES-EN-REDACTIONS/ARTICLE_MVOTO/Paper2_JCIM/docking_rerun/ligands/9168.pdb
REMARK  0 active torsions:
REMARK  status: ('A' for Active; 'I' for Inactive)
REMARK                            x       y       z     vdW  Elec       q    Type
REMARK                         _______ _______ _______ _____ _____    ______ ____
ROOT
ATOM      1  C1  UNL     1       6.632  -1.161   3.449  0.00  0.00    +0.001 A 
ATOM      2  C2  UNL     1       6.270  -0.692   2.191  0.00  0.00    +0.001 A 
ATOM      3  C3  UNL     1       5.185  -1.256   1.527  0.00  0.00    +0.008 A 
ATOM      4  C4  UNL     1       4.452  -2.299   2.118  0.00  0.00    -0.017 A 
ATOM      5  C5  UNL     1       4.803  -2.794   3.401  0.00  0.00    -0.010 A 
ATOM      6  C6  UNL     1       5.915  -2.197   4.052  0.00  0.00    +0.009 A 
ATOM      7  C7  UNL     1       4.032  -3.860   3.973  0.00  0.00    -0.010 A 
ATOM      8  C8  UNL     1       4.332  -4.391   5.239  0.00  0.00    +0.010 A 
ATOM      9  C9  UNL     1       3.590  -5.421   5.794  0.00  0.00    +0.010 A 
ATOM     10  C10 UNL     1       2.492  -5.994   5.124  0.00  0.00    -0.010 A 
ATOM     11  C11 UNL     1       2.155  -5.481   3.836  0.00  0.00    -0.010 A 
ATOM     12  C12 UNL     1       2.926  -4.412   3.257  0.00  0.00    -0.010 A 
ATOM     13  C13 UNL     1       2.626  -3.874   1.981  0.00  0.00    +0.010 A 
ATOM     14  C14 UNL     1       3.373  -2.843   1.431  0.00  0.00    +0.009 A 
ATOM     15  C15 UNL     1       1.057  -6.055   3.166  0.00  0.00    +0.010 A 
ATOM     16  C16 UNL     1       0.314  -7.084   3.721  0.00  0.00    +0.010 A 
ATOM     17  C17 UNL     1       0.614  -7.615   4.987  0.00  0.00    -0.010 A 
ATOM     18  C18 UNL     1       1.721  -7.064   5.703  0.00  0.00    -0.010 A 
ATOM     19  C19 UNL     1       2.021  -7.601   6.979  0.00  0.00    +0.010 A 
ATOM     20  C20 UNL     1       1.274  -8.632   7.529  0.00  0.00    +0.009 A 
ATOM     21  C21 UNL     1       0.195  -9.176   6.842  0.00  0.00    -0.017 A 
ATOM     22  C22 UNL     1      -0.157  -8.681   5.559  0.00  0.00    -0.010 A 
ATOM     23  C23 UNL     1      -1.268  -9.279   4.908  0.00  0.00    +0.009 A 
ATOM     24  C24 UNL     1      -1.986 -10.315   5.510  0.00  0.00    +0.001 A 
ATOM     25  C25 UNL     1      -1.623 -10.784   6.769  0.00  0.00    +0.001 A 
ATOM     26  C26 UNL     1      -0.538 -10.220   7.433  0.00  0.00    +0.008 A 
ENDROOT
TORSDOF 0
ENDMDL
MODEL 2
REMARK minimizedAffinity -7.8369565
REMARK minimizedRMSD -1
REMARK  Name = /home/tchapet/Post-Doc/ARTICLES-DOSSIERS-DES-ARTICLES-EN-REDACTION/NOUVELS-AXES-DE-RECHERCHE-A-REGARDER-URGEMMENT/ARTICLES-EN-REDACTIONS/ARTICLE_MVOTO/Paper2_JCIM/docking_rerun/ligands/9168.pdb
REMARK  0 active torsions:
REMARK  status: ('A' for Active; 'I' for Inactive)
REMARK                            x       y       z     vdW  Elec       q    Type
REMARK                         _______ _______ _______ _____ _____    ______ ____
ROOT
ATOM      1  C1  UNL     1      -1.950 -10.215   5.581  0.00  0.00    +0.001 A 
ATOM      2  C2  UNL     1      -1.560 -10.693   6.827  0.00  0.00    +0.001 A 
ATOM      3  C3  UNL     1      -0.460 -10.134   7.470  0.00  0.00    +0.008 A 
ATOM      4  C4  UNL     1       0.262  -9.089   6.869  0.00  0.00    -0.017 A 
ATOM      5  C5  UNL     1      -0.118  -8.585   5.598  0.00  0.00    -0.010 A 
ATOM      6  C6  UNL     1      -1.245  -9.177   4.968  0.00  0.00    +0.009 A 
ATOM      7  C7  UNL     1       0.643  -7.517   5.015  0.00  0.00    -0.010 A 
ATOM      8  C8  UNL     1       0.314  -6.977   3.760  0.00  0.00    +0.010 A 
ATOM      9  C9  UNL     1       1.047  -5.947   3.194  0.00  0.00    +0.010 A 
ATOM     10  C10 UNL     1       2.161  -5.379   3.842  0.00  0.00    -0.010 A 
ATOM     11  C11 UNL     1       2.525  -5.900   5.120  0.00  0.00    -0.010 A 
ATOM     12  C12 UNL     1       1.766  -6.972   5.710  0.00  0.00    -0.010 A 
ATOM     13  C13 UNL     1       2.094  -7.518   6.975  0.00  0.00    +0.010 A 
ATOM     14  C14 UNL     1       1.356  -8.550   7.536  0.00  0.00    +0.009 A 
ATOM     15  C15 UNL     1       3.640  -5.332   5.769  0.00  0.00    +0.010 A 
ATOM     16  C16 UNL     1       4.372  -4.301   5.204  0.00  0.00    +0.010 A 
ATOM     17  C17 UNL     1       4.044  -3.762   3.948  0.00  0.00    -0.010 A 
ATOM     18  C18 UNL     1       2.920  -4.307   3.253  0.00  0.00    -0.010 A 
ATOM     19  C19 UNL     1       2.593  -3.761   1.988  0.00  0.00    +0.010 A 
ATOM     20  C20 UNL     1       3.330  -2.729   1.427  0.00  0.00    +0.009 A 
ATOM     21  C21 UNL     1       4.425  -2.190   2.094  0.00  0.00    -0.017 A 
ATOM     22  C22 UNL     1       4.804  -2.693   3.365  0.00  0.00    -0.010 A 
ATOM     23  C23 UNL     1       5.931  -2.102   3.995  0.00  0.00    +0.009 A 
ATOM     24  C24 UNL     1       6.637  -1.063   3.383  0.00  0.00    +0.001 A 
ATOM     25  C25 UNL     1       6.246  -0.586   2.136  0.00  0.00    +0.001 A 
ATOM     26  C26 UNL     1       5.146  -1.145   1.492  0.00  0.00    +0.008 A 
ENDROOT
TORSDOF 0
ENDMDL
MODEL 3
REMARK minimizedAffinity -7.50538635
REMARK minimizedRMSD -1
REMARK  Name = /home/tchapet/Post-Doc/ARTICLES-DOSSIERS-DES-ARTICLES-EN-REDACTION/NOUVELS-AXES-DE-RECHERCHE-A-REGARDER-URGEMMENT/ARTICLES-EN-REDACTIONS/ARTICLE_MVOTO/Paper2_JCIM/docking_rerun/ligands/9168.pdb
REMARK  0 active torsions:
REMARK  status: ('A' for Active; 'I' for Inactive)
REMARK                            x       y       z     vdW  Elec       q    Type
REMARK                         _______ _______ _______ _____ _____    ______ ____
ROOT
ATOM      1  C1  UNL     1     -26.350 -28.207   7.979  0.00  0.00    +0.001 A 
ATOM      2  C2  UNL     1     -27.367 -29.156   7.982  0.00  0.00    +0.001 A 
ATOM      3  C3  UNL     1     -27.273 -30.275   7.161  0.00  0.00    +0.008 A 
ATOM      4  C4  UNL     1     -26.158 -30.455   6.326  0.00  0.00    -0.017 A 
ATOM      5  C5  UNL     1     -25.108 -29.501   6.305  0.00  0.00    -0.010 A 
ATOM      6  C6  UNL     1     -25.233 -28.369   7.155  0.00  0.00    +0.009 A 
ATOM      7  C7  UNL     1     -23.984 -29.717   5.440  0.00  0.00    -0.010 A 
ATOM      8  C8  UNL     1     -22.915 -28.808   5.378  0.00  0.00    +0.010 A 
ATOM      9  C9  UNL     1     -21.828 -29.013   4.543  0.00  0.00    +0.010 A 
ATOM     10  C10 UNL     1     -21.731 -30.145   3.710  0.00  0.00    -0.010 A 
ATOM     11  C11 UNL     1     -22.797 -31.093   3.746  0.00  0.00    -0.010 A 
ATOM     12  C12 UNL     1     -23.928 -30.881   4.612  0.00  0.00    -0.010 A 
ATOM     13  C13 UNL     1     -25.007 -31.795   4.678  0.00  0.00    +0.010 A 
ATOM     14  C14 UNL     1     -26.092 -31.583   5.517  0.00  0.00    +0.009 A 
ATOM     15  C15 UNL     1     -22.700 -32.225   2.913  0.00  0.00    +0.010 A 
ATOM     16  C16 UNL     1     -21.614 -32.432   2.079  0.00  0.00    +0.010 A 
ATOM     17  C17 UNL     1     -20.545 -31.522   2.016  0.00  0.00    -0.010 A 
ATOM     18  C18 UNL     1     -20.601 -30.358   2.844  0.00  0.00    -0.010 A 
ATOM     19  C19 UNL     1     -19.522 -29.443   2.778  0.00  0.00    +0.010 A 
ATOM     20  C20 UNL     1     -18.437 -29.656   1.940  0.00  0.00    +0.009 A 
ATOM     21  C21 UNL     1     -18.371 -30.784   1.130  0.00  0.00    -0.017 A 
ATOM     22  C22 UNL     1     -19.421 -31.739   1.151  0.00  0.00    -0.010 A 
ATOM     23  C23 UNL     1     -19.296 -32.869   0.301  0.00  0.00    +0.009 A 
ATOM     24  C24 UNL     1     -18.179 -33.032  -0.522  0.00  0.00    +0.001 A 
ATOM     25  C25 UNL     1     -17.162 -32.083  -0.526  0.00  0.00    +0.001 A 
ATOM     26  C26 UNL     1     -17.255 -30.964   0.295  0.00  0.00    +0.008 A 
ENDROOT
TORSDOF 0
ENDMDL
MODEL 4
REMARK minimizedAffinity -7.47483826
REMARK minimizedRMSD -1
REMARK  Name = /home/tchapet/Post-Doc/ARTICLES-DOSSIERS-DES-ARTICLES-EN-REDACTION/NOUVELS-AXES-DE-RECHERCHE-A-REGARDER-URGEMMENT/ARTICLES-EN-REDACTIONS/ARTICLE_MVOTO/Paper2_JCIM/docking_rerun/ligands/9168.pdb
REMARK  0 active torsions:
REMARK  status: ('A' for Active; 'I' for Inactive)
REMARK                            x       y       z     vdW  Elec       q    Type
REMARK                         _______ _______ _______ _____ _____    ______ ____
ROOT
ATOM      1  C1  UNL     1       5.346  -1.293   0.765  0.00  0.00    +0.001 A 
ATOM      2  C2  UNL     1       6.204  -0.722   1.699  0.00  0.00    +0.001 A 
ATOM      3  C3  UNL     1       6.207  -1.184   3.011  0.00  0.00    +0.008 A 
ATOM      4  C4  UNL     1       5.347  -2.225   3.402  0.00  0.00    -0.017 A 
ATOM      5  C5  UNL     1       4.464  -2.823   2.467  0.00  0.00    -0.010 A 
ATOM      6  C6  UNL     1       4.485  -2.329   1.135  0.00  0.00    +0.009 A 
ATOM      7  C7  UNL     1       3.600  -3.884   2.901  0.00  0.00    -0.010 A 
ATOM      8  C8  UNL     1       2.705  -4.514   2.020  0.00  0.00    +0.010 A 
ATOM      9  C9  UNL     1       1.870  -5.538   2.437  0.00  0.00    +0.010 A 
ATOM     10  C10 UNL     1       1.870  -6.008   3.765  0.00  0.00    -0.010 A 
ATOM     11  C11 UNL     1       2.767  -5.393   4.689  0.00  0.00    -0.010 A 
ATOM     12  C12 UNL     1       3.635  -4.328   4.259  0.00  0.00    -0.010 A 
ATOM     13  C13 UNL     1       4.539  -3.691   5.143  0.00  0.00    +0.010 A 
ATOM     14  C14 UNL     1       5.373  -2.666   4.720  0.00  0.00    +0.009 A 
ATOM     15  C15 UNL     1       2.768  -5.863   6.017  0.00  0.00    +0.010 A 
ATOM     16  C16 UNL     1       1.933  -6.888   6.434  0.00  0.00    +0.010 A 
ATOM     17  C17 UNL     1       1.037  -7.517   5.553  0.00  0.00    -0.010 A 
ATOM     18  C18 UNL     1       1.002  -7.073   4.195  0.00  0.00    -0.010 A 
ATOM     19  C19 UNL     1       0.098  -7.710   3.311  0.00  0.00    +0.010 A 
ATOM     20  C20 UNL     1      -0.736  -8.735   3.734  0.00  0.00    +0.009 A 
ATOM     21  C21 UNL     1      -0.710  -9.176   5.052  0.00  0.00    -0.017 A 
ATOM     22  C22 UNL     1       0.174  -8.578   5.988  0.00  0.00    -0.010 A 
ATOM     23  C23 UNL     1       0.152  -9.072   7.319  0.00  0.00    +0.009 A 
ATOM     24  C24 UNL     1      -0.708 -10.108   7.689  0.00  0.00    +0.001 A 
ATOM     25  C25 UNL     1      -1.567 -10.679   6.755  0.00  0.00    +0.001 A 
ATOM     26  C26 UNL     1      -1.570 -10.217   5.443  0.00  0.00    +0.008 A 
ENDROOT
TORSDOF 0
ENDMDL
MODEL 5
REMARK minimizedAffinity -7.43216085
REMARK minimizedRMSD -1
REMARK  Name = /home/tchapet/Post-Doc/ARTICLES-DOSSIERS-DES-ARTICLES-EN-REDACTION/NOUVELS-AXES-DE-RECHERCHE-A-REGARDER-URGEMMENT/ARTICLES-EN-REDACTIONS/ARTICLE_MVOTO/Paper2_JCIM/docking_rerun/ligands/9168.pdb
REMARK  0 active torsions:
REMARK  status: ('A' for Active; 'I' for Inactive)
REMARK                            x       y       z     vdW  Elec       q    Type
REMARK                         _______ _______ _______ _____ _____    ______ ____
ROOT
ATOM      1  C1  UNL     1      -0.721 -10.135   7.499  0.00  0.00    +0.001 A 
ATOM      2  C2  UNL     1      -1.579 -10.676   6.547  0.00  0.00    +0.001 A 
ATOM      3  C3  UNL     1      -1.569 -10.184   5.246  0.00  0.00    +0.008 A 
ATOM      4  C4  UNL     1      -0.699  -9.142   4.884  0.00  0.00    -0.017 A 
ATOM      5  C5  UNL     1       0.185  -8.574   5.838  0.00  0.00    -0.010 A 
ATOM      6  C6  UNL     1       0.152  -9.099   7.157  0.00  0.00    +0.009 A 
ATOM      7  C7  UNL     1       1.060  -7.512   5.433  0.00  0.00    -0.010 A 
ATOM      8  C8  UNL     1       1.957  -6.911   6.332  0.00  0.00    +0.010 A 
ATOM      9  C9  UNL     1       2.803  -5.885   5.945  0.00  0.00    +0.010 A 
ATOM     10  C10 UNL     1       2.815  -5.384   4.628  0.00  0.00    -0.010 A 
ATOM     11  C11 UNL     1       1.918  -5.970   3.685  0.00  0.00    -0.010 A 
ATOM     12  C12 UNL     1       1.038  -7.036   4.085  0.00  0.00    -0.010 A 
ATOM     13  C13 UNL     1       0.133  -7.644   3.182  0.00  0.00    +0.010 A 
ATOM     14  C14 UNL     1      -0.712  -8.671   3.576  0.00  0.00    +0.009 A 
ATOM     15  C15 UNL     1       1.930  -5.469   2.368  0.00  0.00    +0.010 A 
ATOM     16  C16 UNL     1       2.776  -4.443   1.979  0.00  0.00    +0.010 A 
ATOM     17  C17 UNL     1       3.672  -3.842   2.880  0.00  0.00    -0.010 A 
ATOM     18  C18 UNL     1       3.695  -4.318   4.227  0.00  0.00    -0.010 A 
ATOM     19  C19 UNL     1       4.600  -3.710   5.131  0.00  0.00    +0.010 A 
ATOM     20  C20 UNL     1       5.445  -2.682   4.736  0.00  0.00    +0.009 A 
ATOM     21  C21 UNL     1       5.432  -2.212   3.428  0.00  0.00    -0.017 A 
ATOM     22  C22 UNL     1       4.548  -2.780   2.474  0.00  0.00    -0.010 A 
ATOM     23  C23 UNL     1       4.581  -2.255   1.155  0.00  0.00    +0.009 A 
ATOM     24  C24 UNL     1       5.454  -1.219   0.813  0.00  0.00    +0.001 A 
ATOM     25  C25 UNL     1       6.312  -0.678   1.766  0.00  0.00    +0.001 A 
ATOM     26  C26 UNL     1       6.302  -1.169   3.067  0.00  0.00    +0.008 A 
ENDROOT
TORSDOF 0
ENDMDL
MODEL 6
REMARK minimizedAffinity -7.41021681
REMARK minimizedRMSD -1
REMARK  Name = /home/tchapet/Post-Doc/ARTICLES-DOSSIERS-DES-ARTICLES-EN-REDACTION/NOUVELS-AXES-DE-RECHERCHE-A-REGARDER-URGEMMENT/ARTICLES-EN-REDACTIONS/ARTICLE_MVOTO/Paper2_JCIM/docking_rerun/ligands/9168.pdb
REMARK  0 active torsions:
REMARK  status: ('A' for Active; 'I' for Inactive)
REMARK                            x       y       z     vdW  Elec       q    Type
REMARK                         _______ _______ _______ _____ _____    ______ ____
ROOT
ATOM      1  C1  UNL     1     -15.352 -37.032  -2.546  0.00  0.00    +0.001 A 
ATOM      2  C2  UNL     1     -14.109 -36.478  -2.836  0.00  0.00    +0.001 A 
ATOM      3  C3  UNL     1     -13.816 -35.181  -2.429  0.00  0.00    +0.008 A 
ATOM      4  C4  UNL     1     -14.768 -34.423  -1.725  0.00  0.00    -0.017 A 
ATOM      5  C5  UNL     1     -16.042 -34.966  -1.418  0.00  0.00    -0.010 A 
ATOM      6  C6  UNL     1     -16.310 -36.293  -1.847  0.00  0.00    +0.009 A 
ATOM      7  C7  UNL     1     -16.988 -34.163  -0.698  0.00  0.00    -0.010 A 
ATOM      8  C8  UNL     1     -18.264 -34.648  -0.365  0.00  0.00    +0.010 A 
ATOM      9  C9  UNL     1     -19.181 -33.875   0.330  0.00  0.00    +0.010 A 
ATOM     10  C10 UNL     1     -18.887 -32.561   0.744  0.00  0.00    -0.010 A 
ATOM     11  C11 UNL     1     -17.600 -32.033   0.425  0.00  0.00    -0.010 A 
ATOM     12  C12 UNL     1     -16.646 -32.835  -0.298  0.00  0.00    -0.010 A 
ATOM     13  C13 UNL     1     -15.359 -32.350  -0.635  0.00  0.00    +0.010 A 
ATOM     14  C14 UNL     1     -14.446 -33.129  -1.331  0.00  0.00    +0.009 A 
ATOM     15  C15 UNL     1     -17.306 -30.719   0.839  0.00  0.00    +0.010 A 
ATOM     16  C16 UNL     1     -18.221 -29.946   1.534  0.00  0.00    +0.010 A 
ATOM     17  C17 UNL     1     -19.498 -30.430   1.866  0.00  0.00    -0.010 A 
ATOM     18  C18 UNL     1     -19.840 -31.759   1.466  0.00  0.00    -0.010 A 
ATOM     19  C19 UNL     1     -21.128 -32.244   1.803  0.00  0.00    +0.010 A 
ATOM     20  C20 UNL     1     -22.041 -31.465   2.499  0.00  0.00    +0.009 A 
ATOM     21  C21 UNL     1     -21.719 -30.171   2.894  0.00  0.00    -0.017 A 
ATOM     22  C22 UNL     1     -20.444 -29.627   2.587  0.00  0.00    -0.010 A 
ATOM     23  C23 UNL     1     -20.177 -28.301   3.016  0.00  0.00    +0.009 A 
ATOM     24  C24 UNL     1     -21.134 -27.562   3.715  0.00  0.00    +0.001 A 
ATOM     25  C25 UNL     1     -22.377 -28.116   4.005  0.00  0.00    +0.001 A 
ATOM     26  C26 UNL     1     -22.670 -29.413   3.597  0.00  0.00    +0.008 A 
ENDROOT
TORSDOF 0
ENDMDL
MODEL 7
REMARK minimizedAffinity -7.38281202
REMARK minimizedRMSD -1
REMARK  Name = /home/tchapet/Post-Doc/ARTICLES-DOSSIERS-DES-ARTICLES-EN-REDACTION/NOUVELS-AXES-DE-RECHERCHE-A-REGARDER-URGEMMENT/ARTICLES-EN-REDACTIONS/ARTICLE_MVOTO/Paper2_JCIM/docking_rerun/ligands/9168.pdb
REMARK  0 active torsions:
REMARK  status: ('A' for Active; 'I' for Inactive)
REMARK                            x       y       z     vdW  Elec       q    Type
REMARK                         _______ _______ _______ _____ _____    ______ ____
ROOT
ATOM      1  C1  UNL     1     -17.875 -30.549   3.083  0.00  0.00    +0.001 A 
ATOM      2  C2  UNL     1     -17.961 -29.486   2.190  0.00  0.00    +0.001 A 
ATOM      3  C3  UNL     1     -19.059 -28.633   2.232  0.00  0.00    +0.008 A 
ATOM      4  C4  UNL     1     -20.084 -28.837   3.172  0.00  0.00    -0.017 A 
ATOM      5  C5  UNL     1     -20.018 -29.914   4.093  0.00  0.00    -0.010 A 
ATOM      6  C6  UNL     1     -18.884 -30.767   4.024  0.00  0.00    +0.009 A 
ATOM      7  C7  UNL     1     -21.083 -30.091   5.038  0.00  0.00    -0.010 A 
ATOM      8  C8  UNL     1     -21.072 -31.139   5.974  0.00  0.00    +0.010 A 
ATOM      9  C9  UNL     1     -22.099 -31.314   6.887  0.00  0.00    +0.010 A 
ATOM     10  C10 UNL     1     -23.212 -30.451   6.932  0.00  0.00    -0.010 A 
ATOM     11  C11 UNL     1     -23.258 -29.374   5.998  0.00  0.00    -0.010 A 
ATOM     12  C12 UNL     1     -22.193 -29.191   5.047  0.00  0.00    -0.010 A 
ATOM     13  C13 UNL     1     -22.200 -28.136   4.103  0.00  0.00    +0.010 A 
ATOM     14  C14 UNL     1     -21.168 -27.967   3.191  0.00  0.00    +0.009 A 
ATOM     15  C15 UNL     1     -24.371 -28.511   6.043  0.00  0.00    +0.010 A 
ATOM     16  C16 UNL     1     -25.398 -28.685   6.957  0.00  0.00    +0.010 A 
ATOM     17  C17 UNL     1     -25.387 -29.733   7.893  0.00  0.00    -0.010 A 
ATOM     18  C18 UNL     1     -24.277 -30.634   7.883  0.00  0.00    -0.010 A 
ATOM     19  C19 UNL     1     -24.270 -31.689   8.828  0.00  0.00    +0.010 A 
ATOM     20  C20 UNL     1     -25.302 -31.858   9.740  0.00  0.00    +0.009 A 
ATOM     21  C21 UNL     1     -26.386 -30.988   9.759  0.00  0.00    -0.017 A 
ATOM     22  C22 UNL     1     -26.452 -29.910   8.838  0.00  0.00    -0.010 A 
ATOM     23  C23 UNL     1     -27.586 -29.058   8.907  0.00  0.00    +0.009 A 
ATOM     24  C24 UNL     1     -28.595 -29.275   9.848  0.00  0.00    +0.001 A 
ATOM     25  C25 UNL     1     -28.509 -30.338  10.741  0.00  0.00    +0.001 A 
ATOM     26  C26 UNL     1     -27.411 -31.192  10.698  0.00  0.00    +0.008 A 
ENDROOT
TORSDOF 0
ENDMDL
MODEL 8
REMARK minimizedAffinity -7.33674049
REMARK minimizedRMSD -1
REMARK  Name = /home/tchapet/Post-Doc/ARTICLES-DOSSIERS-DES-ARTICLES-EN-REDACTION/NOUVELS-AXES-DE-RECHERCHE-A-REGARDER-URGEMMENT/ARTICLES-EN-REDACTIONS/ARTICLE_MVOTO/Paper2_JCIM/docking_rerun/ligands/9168.pdb
REMARK  0 active torsions:
REMARK  status: ('A' for Active; 'I' for Inactive)
REMARK                            x       y       z     vdW  Elec       q    Type
REMARK                         _______ _______ _______ _____ _____    ______ ____
ROOT
ATOM      1  C1  UNL     1      16.892   4.043  12.127  0.00  0.00    +0.001 A 
ATOM      2  C2  UNL     1      16.435   2.735  12.011  0.00  0.00    +0.001 A 
ATOM      3  C3  UNL     1      15.622   2.377  10.939  0.00  0.00    +0.008 A 
ATOM      4  C4  UNL     1      15.258   3.329   9.972  0.00  0.00    -0.017 A 
ATOM      5  C5  UNL     1      15.712   4.670  10.070  0.00  0.00    -0.010 A 
ATOM      6  C6  UNL     1      16.540   5.003  11.175  0.00  0.00    +0.009 A 
ATOM      7  C7  UNL     1      15.320   5.615   9.064  0.00  0.00    -0.010 A 
ATOM      8  C8  UNL     1      15.739   6.956   9.108  0.00  0.00    +0.010 A 
ATOM      9  C9  UNL     1      15.362   7.871   8.139  0.00  0.00    +0.010 A 
ATOM     10  C10 UNL     1      14.539   7.512   7.053  0.00  0.00    -0.010 A 
ATOM     11  C11 UNL     1      14.095   6.158   6.973  0.00  0.00    -0.010 A 
ATOM     12  C12 UNL     1      14.484   5.206   7.980  0.00  0.00    -0.010 A 
ATOM     13  C13 UNL     1      14.065   3.854   7.938  0.00  0.00    +0.010 A 
ATOM     14  C14 UNL     1      14.446   2.942   8.913  0.00  0.00    +0.009 A 
ATOM     15  C15 UNL     1      13.272   5.799   5.887  0.00  0.00    +0.010 A 
ATOM     16  C16 UNL     1      12.895   6.714   4.917  0.00  0.00    +0.010 A 
ATOM     17  C17 UNL     1      13.313   8.055   4.962  0.00  0.00    -0.010 A 
ATOM     18  C18 UNL     1      14.150   8.465   6.046  0.00  0.00    -0.010 A 
ATOM     19  C19 UNL     1      14.569   9.816   6.088  0.00  0.00    +0.010 A 
ATOM     20  C20 UNL     1      14.188  10.728   5.113  0.00  0.00    +0.009 A 
ATOM     21  C21 UNL     1      13.376  10.341   4.054  0.00  0.00    -0.017 A 
ATOM     22  C22 UNL     1      12.922   8.999   3.955  0.00  0.00    -0.010 A 
ATOM     23  C23 UNL     1      12.094   8.667   2.851  0.00  0.00    +0.009 A 
ATOM     24  C24 UNL     1      11.742   9.627   1.898  0.00  0.00    +0.001 A 
ATOM     25  C25 UNL     1      12.199  10.936   2.015  0.00  0.00    +0.001 A 
ATOM     26  C26 UNL     1      13.012  11.293   3.087  0.00  0.00    +0.008 A 
ENDROOT
TORSDOF 0
ENDMDL
MODEL 9
REMARK minimizedAffinity -7.33311176
REMARK minimizedRMSD -1
REMARK  Name = /home/tchapet/Post-Doc/ARTICLES-DOSSIERS-DES-ARTICLES-EN-REDACTION/NOUVELS-AXES-DE-RECHERCHE-A-REGARDER-URGEMMENT/ARTICLES-EN-REDACTIONS/ARTICLE_MVOTO/Paper2_JCIM/docking_rerun/ligands/9168.pdb
REMARK  0 active torsions:
REMARK  status: ('A' for Active; 'I' for Inactive)
REMARK                            x       y       z     vdW  Elec       q    Type
REMARK                         _______ _______ _______ _____ _____    ______ ____
ROOT
ATOM      1  C1  UNL     1     -29.641 -34.996   1.652  0.00  0.00    +0.001 A 
ATOM      2  C2  UNL     1     -29.360 -36.249   1.118  0.00  0.00    +0.001 A 
ATOM      3  C3  UNL     1     -28.045 -36.601   0.830  0.00  0.00    +0.008 A 
ATOM      4  C4  UNL     1     -26.996 -35.698   1.074  0.00  0.00    -0.017 A 
ATOM      5  C5  UNL     1     -27.258 -34.414   1.618  0.00  0.00    -0.010 A 
ATOM      6  C6  UNL     1     -28.611 -34.085   1.901  0.00  0.00    +0.009 A 
ATOM      7  C7  UNL     1     -26.163 -33.518   1.853  0.00  0.00    -0.010 A 
ATOM      8  C8  UNL     1     -26.361 -32.235   2.390  0.00  0.00    +0.010 A 
ATOM      9  C9  UNL     1     -25.305 -31.367   2.618  0.00  0.00    +0.010 A 
ATOM     10  C10 UNL     1     -23.973 -31.720   2.327  0.00  0.00    -0.010 A 
ATOM     11  C11 UNL     1     -23.731 -33.017   1.781  0.00  0.00    -0.010 A 
ATOM     12  C12 UNL     1     -24.826 -33.919   1.543  0.00  0.00    -0.010 A 
ATOM     13  C13 UNL     1     -24.630 -35.213   1.002  0.00  0.00    +0.010 A 
ATOM     14  C14 UNL     1     -25.692 -36.077   0.776  0.00  0.00    +0.009 A 
ATOM     15  C15 UNL     1     -22.398 -33.370   1.490  0.00  0.00    +0.010 A 
ATOM     16  C16 UNL     1     -21.342 -32.503   1.718  0.00  0.00    +0.010 A 
ATOM     17  C17 UNL     1     -21.541 -31.219   2.255  0.00  0.00    -0.010 A 
ATOM     18  C18 UNL     1     -22.877 -30.818   2.566  0.00  0.00    -0.010 A 
ATOM     19  C19 UNL     1     -23.073 -29.524   3.106  0.00  0.00    +0.010 A 
ATOM     20  C20 UNL     1     -22.011 -28.660   3.333  0.00  0.00    +0.009 A 
ATOM     21  C21 UNL     1     -20.707 -29.039   3.035  0.00  0.00    -0.017 A 
ATOM     22  C22 UNL     1     -20.444 -30.324   2.491  0.00  0.00    -0.010 A 
ATOM     23  C23 UNL     1     -19.092 -30.652   2.207  0.00  0.00    +0.009 A 
ATOM     24  C24 UNL     1     -18.062 -29.742   2.456  0.00  0.00    +0.001 A 
ATOM     25  C25 UNL     1     -18.343 -28.488   2.990  0.00  0.00    +0.001 A 
ATOM     26  C26 UNL     1     -19.658 -28.136   3.278  0.00  0.00    +0.008 A 
ENDROOT
TORSDOF 0
ENDMDL
