MODEL 1
REMARK minimizedAffinity -9.03493881
REMARK minimizedRMSD -1
REMARK  Name = /home/tchapet/Post-Doc/ARTICLES-DOSSIERS-DES-ARTICLES-EN-REDACTION/NOUVELS-AXES-DE-RECHERCHE-A-REGARDER-URGEMMENT/ARTICLES-EN-REDACTIONS/ARTICLE_MVOTO/Paper2_JCIM/docking_rerun/ligands/9168.pdb
REMARK  0 active torsions:
REMARK  status: ('A' for Active; 'I' for Inactive)
REMARK                            x       y       z     vdW  Elec       q    Type
REMARK                         _______ _______ _______ _____ _____    ______ ____
ROOT
ATOM      1  C1  UNL     1      13.519  -1.588  11.047  0.00  0.00    +0.001 A 
ATOM      2  C2  UNL     1      13.158  -0.249  10.945  0.00  0.00    +0.001 A 
ATOM      3  C3  UNL     1      13.050   0.347   9.693  0.00  0.00    +0.008 A 
ATOM      4  C4  UNL     1      13.304  -0.395   8.527  0.00  0.00    -0.017 A 
ATOM      5  C5  UNL     1      13.674  -1.763   8.605  0.00  0.00    -0.010 A 
ATOM      6  C6  UNL     1      13.775  -2.341   9.898  0.00  0.00    +0.009 A 
ATOM      7  C7  UNL     1      13.925  -2.489   7.394  0.00  0.00    -0.010 A 
ATOM      8  C8  UNL     1      14.294  -3.845   7.409  0.00  0.00    +0.010 A 
ATOM      9  C9  UNL     1      14.538  -4.549   6.241  0.00  0.00    +0.010 A 
ATOM     10  C10 UNL     1      14.430  -3.948   4.971  0.00  0.00    -0.010 A 
ATOM     11  C11 UNL     1      14.056  -2.572   4.914  0.00  0.00    -0.010 A 
ATOM     12  C12 UNL     1      13.802  -1.839   6.127  0.00  0.00    -0.010 A 
ATOM     13  C13 UNL     1      13.430  -0.472   6.115  0.00  0.00    +0.010 A 
ATOM     14  C14 UNL     1      13.187   0.227   7.289  0.00  0.00    +0.009 A 
ATOM     15  C15 UNL     1      13.947  -1.972   3.644  0.00  0.00    +0.010 A 
ATOM     16  C16 UNL     1      14.191  -2.675   2.476  0.00  0.00    +0.010 A 
ATOM     17  C17 UNL     1      14.560  -4.031   2.492  0.00  0.00    -0.010 A 
ATOM     18  C18 UNL     1      14.683  -4.682   3.758  0.00  0.00    -0.010 A 
ATOM     19  C19 UNL     1      15.055  -6.048   3.770  0.00  0.00    +0.010 A 
ATOM     20  C20 UNL     1      15.298  -6.747   2.597  0.00  0.00    +0.009 A 
ATOM     21  C21 UNL     1      15.182  -6.125   1.359  0.00  0.00    -0.017 A 
ATOM     22  C22 UNL     1      14.811  -4.757   1.280  0.00  0.00    -0.010 A 
ATOM     23  C23 UNL     1      14.710  -4.179  -0.013  0.00  0.00    +0.009 A 
ATOM     24  C24 UNL     1      14.965  -4.932  -1.162  0.00  0.00    +0.001 A 
ATOM     25  C25 UNL     1      15.327  -6.272  -1.060  0.00  0.00    +0.001 A 
ATOM     26  C26 UNL     1      15.436  -6.867   0.193  0.00  0.00    +0.008 A 
ENDROOT
TORSDOF 0
ENDMDL
MODEL 2
REMARK minimizedAffinity -8.1105814
REMARK minimizedRMSD -1
REMARK  Name = /home/tchapet/Post-Doc/ARTICLES-DOSSIERS-DES-ARTICLES-EN-REDACTION/NOUVELS-AXES-DE-RECHERCHE-A-REGARDER-URGEMMENT/ARTICLES-EN-REDACTIONS/ARTICLE_MVOTO/Paper2_JCIM/docking_rerun/ligands/9168.pdb
REMARK  0 active torsions:
REMARK  status: ('A' for Active; 'I' for Inactive)
REMARK                            x       y       z     vdW  Elec       q    Type
REMARK                         _______ _______ _______ _____ _____    ______ ____
ROOT
ATOM      1  C1  UNL     1      16.294  -7.927  -2.823  0.00  0.00    +0.001 A 
ATOM      2  C2  UNL     1      15.172  -7.526  -3.541  0.00  0.00    +0.001 A 
ATOM      3  C3  UNL     1      14.177  -6.784  -2.913  0.00  0.00    +0.008 A 
ATOM      4  C4  UNL     1      14.295  -6.438  -1.556  0.00  0.00    -0.017 A 
ATOM      5  C5  UNL     1      15.430  -6.837  -0.803  0.00  0.00    -0.010 A 
ATOM      6  C6  UNL     1      16.429  -7.592  -1.474  0.00  0.00    +0.009 A 
ATOM      7  C7  UNL     1      15.517  -6.465   0.580  0.00  0.00    -0.010 A 
ATOM      8  C8  UNL     1      16.616  -6.831   1.374  0.00  0.00    +0.010 A 
ATOM      9  C9  UNL     1      16.703  -6.475   2.710  0.00  0.00    +0.010 A 
ATOM     10  C10 UNL     1      15.697  -5.724   3.349  0.00  0.00    -0.010 A 
ATOM     11  C11 UNL     1      14.564  -5.332   2.575  0.00  0.00    -0.010 A 
ATOM     12  C12 UNL     1      14.471  -5.703   1.186  0.00  0.00    -0.010 A 
ATOM     13  C13 UNL     1      13.365  -5.335   0.382  0.00  0.00    +0.010 A 
ATOM     14  C14 UNL     1      13.284  -5.696  -0.955  0.00  0.00    +0.009 A 
ATOM     15  C15 UNL     1      13.557  -4.582   3.213  0.00  0.00    +0.010 A 
ATOM     16  C16 UNL     1      13.644  -4.225   4.549  0.00  0.00    +0.010 A 
ATOM     17  C17 UNL     1      14.743  -4.591   5.344  0.00  0.00    -0.010 A 
ATOM     18  C18 UNL     1      15.789  -5.354   4.737  0.00  0.00    -0.010 A 
ATOM     19  C19 UNL     1      16.895  -5.721   5.542  0.00  0.00    +0.010 A 
ATOM     20  C20 UNL     1      16.976  -5.360   6.879  0.00  0.00    +0.009 A 
ATOM     21  C21 UNL     1      15.966  -4.618   7.479  0.00  0.00    -0.017 A 
ATOM     22  C22 UNL     1      14.830  -4.219   6.727  0.00  0.00    -0.010 A 
ATOM     23  C23 UNL     1      13.832  -3.464   7.398  0.00  0.00    +0.009 A 
ATOM     24  C24 UNL     1      13.966  -3.128   8.747  0.00  0.00    +0.001 A 
ATOM     25  C25 UNL     1      15.088  -3.531   9.464  0.00  0.00    +0.001 A 
ATOM     26  C26 UNL     1      16.084  -4.272   8.836  0.00  0.00    +0.008 A 
ENDROOT
TORSDOF 0
ENDMDL
MODEL 3
REMARK minimizedAffinity -8.07279682
REMARK minimizedRMSD -1
REMARK  Name = /home/tchapet/Post-Doc/ARTICLES-DOSSIERS-DES-ARTICLES-EN-REDACTION/NOUVELS-AXES-DE-RECHERCHE-A-REGARDER-URGEMMENT/ARTICLES-EN-REDACTIONS/ARTICLE_MVOTO/Paper2_JCIM/docking_rerun/ligands/9168.pdb
REMARK  0 active torsions:
REMARK  status: ('A' for Active; 'I' for Inactive)
REMARK                            x       y       z     vdW  Elec       q    Type
REMARK                         _______ _______ _______ _____ _____    ______ ____
ROOT
ATOM      1  C1  UNL     1      16.774  -4.948   8.317  0.00  0.00    +0.001 A 
ATOM      2  C2  UNL     1      15.736  -4.188   8.846  0.00  0.00    +0.001 A 
ATOM      3  C3  UNL     1      14.678  -3.798   8.032  0.00  0.00    +0.008 A 
ATOM      4  C4  UNL     1      14.649  -4.165   6.676  0.00  0.00    -0.017 A 
ATOM      5  C5  UNL     1      15.696  -4.940   6.114  0.00  0.00    -0.010 A 
ATOM      6  C6  UNL     1      16.762  -5.323   6.971  0.00  0.00    +0.009 A 
ATOM      7  C7  UNL     1      15.633  -5.297   4.725  0.00  0.00    -0.010 A 
ATOM      8  C8  UNL     1      16.640  -6.062   4.114  0.00  0.00    +0.010 A 
ATOM      9  C9  UNL     1      16.583  -6.408   2.773  0.00  0.00    +0.010 A 
ATOM     10  C10 UNL     1      15.512  -6.013   1.946  0.00  0.00    -0.010 A 
ATOM     11  C11 UNL     1      14.469  -5.235   2.532  0.00  0.00    -0.010 A 
ATOM     12  C12 UNL     1      14.527  -4.874   3.924  0.00  0.00    -0.010 A 
ATOM     13  C13 UNL     1      13.514  -4.103   4.544  0.00  0.00    +0.010 A 
ATOM     14  C14 UNL     1      13.578  -3.761   5.887  0.00  0.00    +0.009 A 
ATOM     15  C15 UNL     1      13.398  -4.841   1.705  0.00  0.00    +0.010 A 
ATOM     16  C16 UNL     1      13.340  -5.187   0.364  0.00  0.00    +0.010 A 
ATOM     17  C17 UNL     1      14.348  -5.952  -0.247  0.00  0.00    -0.010 A 
ATOM     18  C18 UNL     1      15.454  -6.374   0.554  0.00  0.00    -0.010 A 
ATOM     19  C19 UNL     1      16.467  -7.145  -0.066  0.00  0.00    +0.010 A 
ATOM     20  C20 UNL     1      16.403  -7.488  -1.409  0.00  0.00    +0.009 A 
ATOM     21  C21 UNL     1      15.332  -7.084  -2.198  0.00  0.00    -0.017 A 
ATOM     22  C22 UNL     1      14.284  -6.309  -1.636  0.00  0.00    -0.010 A 
ATOM     23  C23 UNL     1      13.219  -5.926  -2.493  0.00  0.00    +0.009 A 
ATOM     24  C24 UNL     1      13.206  -6.301  -3.839  0.00  0.00    +0.001 A 
ATOM     25  C25 UNL     1      14.245  -7.060  -4.368  0.00  0.00    +0.001 A 
ATOM     26  C26 UNL     1      15.303  -7.451  -3.554  0.00  0.00    +0.008 A 
ENDROOT
TORSDOF 0
ENDMDL
MODEL 4
REMARK minimizedAffinity -8.00055218
REMARK minimizedRMSD -1
REMARK  Name = /home/tchapet/Post-Doc/ARTICLES-DOSSIERS-DES-ARTICLES-EN-REDACTION/NOUVELS-AXES-DE-RECHERCHE-A-REGARDER-URGEMMENT/ARTICLES-EN-REDACTIONS/ARTICLE_MVOTO/Paper2_JCIM/docking_rerun/ligands/9168.pdb
REMARK  0 active torsions:
REMARK  status: ('A' for Active; 'I' for Inactive)
REMARK                            x       y       z     vdW  Elec       q    Type
REMARK                         _______ _______ _______ _____ _____    ______ ____
ROOT
ATOM      1  C1  UNL     1       9.809  -7.115  31.492  0.00  0.00    +0.001 A 
ATOM      2  C2  UNL     1       8.602  -6.532  31.864  0.00  0.00    +0.001 A 
ATOM      3  C3  UNL     1       7.401  -7.107  31.460  0.00  0.00    +0.008 A 
ATOM      4  C4  UNL     1       7.398  -8.274  30.677  0.00  0.00    -0.017 A 
ATOM      5  C5  UNL     1       8.616  -8.886  30.286  0.00  0.00    -0.010 A 
ATOM      6  C6  UNL     1       9.825  -8.275  30.714  0.00  0.00    +0.009 A 
ATOM      7  C7  UNL     1       8.574 -10.077  29.487  0.00  0.00    -0.010 A 
ATOM      8  C8  UNL     1       9.747 -10.728  29.069  0.00  0.00    +0.010 A 
ATOM      9  C9  UNL     1       9.711 -11.877  28.297  0.00  0.00    +0.010 A 
ATOM     10  C10 UNL     1       8.496 -12.462  27.887  0.00  0.00    -0.010 A 
ATOM     11  C11 UNL     1       7.282 -11.831  28.292  0.00  0.00    -0.010 A 
ATOM     12  C12 UNL     1       7.318 -10.635  29.094  0.00  0.00    -0.010 A 
ATOM     13  C13 UNL     1       6.138  -9.977  29.517  0.00  0.00    +0.010 A 
ATOM     14  C14 UNL     1       6.182  -8.826  30.290  0.00  0.00    +0.009 A 
ATOM     15  C15 UNL     1       6.067 -12.415  27.882  0.00  0.00    +0.010 A 
ATOM     16  C16 UNL     1       6.030 -13.565  27.110  0.00  0.00    +0.010 A 
ATOM     17  C17 UNL     1       7.204 -14.215  26.692  0.00  0.00    -0.010 A 
ATOM     18  C18 UNL     1       8.460 -13.657  27.085  0.00  0.00    -0.010 A 
ATOM     19  C19 UNL     1       9.640 -14.315  26.662  0.00  0.00    +0.010 A 
ATOM     20  C20 UNL     1       9.596 -15.466  25.889  0.00  0.00    +0.009 A 
ATOM     21  C21 UNL     1       8.380 -16.018  25.501  0.00  0.00    -0.017 A 
ATOM     22  C22 UNL     1       7.161 -15.406  25.893  0.00  0.00    -0.010 A 
ATOM     23  C23 UNL     1       5.953 -16.018  25.465  0.00  0.00    +0.009 A 
ATOM     24  C24 UNL     1       5.969 -17.178  24.687  0.00  0.00    +0.001 A 
ATOM     25  C25 UNL     1       7.176 -17.761  24.315  0.00  0.00    +0.001 A 
ATOM     26  C26 UNL     1       8.377 -17.185  24.718  0.00  0.00    +0.008 A 
ENDROOT
TORSDOF 0
ENDMDL
MODEL 5
REMARK minimizedAffinity -7.93936348
REMARK minimizedRMSD -1
REMARK  Name = /home/tchapet/Post-Doc/ARTICLES-DOSSIERS-DES-ARTICLES-EN-REDACTION/NOUVELS-AXES-DE-RECHERCHE-A-REGARDER-URGEMMENT/ARTICLES-EN-REDACTIONS/ARTICLE_MVOTO/Paper2_JCIM/docking_rerun/ligands/9168.pdb
REMARK  0 active torsions:
REMARK  status: ('A' for Active; 'I' for Inactive)
REMARK                            x       y       z     vdW  Elec       q    Type
REMARK                         _______ _______ _______ _____ _____    ______ ____
ROOT
ATOM      1  C1  UNL     1       6.064 -17.316  24.768  0.00  0.00    +0.001 A 
ATOM      2  C2  UNL     1       7.276 -17.881  24.388  0.00  0.00    +0.001 A 
ATOM      3  C3  UNL     1       8.471 -17.277  24.767  0.00  0.00    +0.008 A 
ATOM      4  C4  UNL     1       8.463 -16.097  25.530  0.00  0.00    -0.017 A 
ATOM      5  C5  UNL     1       7.238 -15.502  25.930  0.00  0.00    -0.010 A 
ATOM      6  C6  UNL     1       6.036 -16.143  25.528  0.00  0.00    +0.009 A 
ATOM      7  C7  UNL     1       7.268 -14.298  26.709  0.00  0.00    -0.010 A 
ATOM      8  C8  UNL     1       6.088 -13.664  27.134  0.00  0.00    +0.010 A 
ATOM      9  C9  UNL     1       6.113 -12.501  27.886  0.00  0.00    +0.010 A 
ATOM     10  C10 UNL     1       7.322 -11.887  28.270  0.00  0.00    -0.010 A 
ATOM     11  C11 UNL     1       8.542 -12.502  27.859  0.00  0.00    -0.010 A 
ATOM     12  C12 UNL     1       8.518 -13.710  27.076  0.00  0.00    -0.010 A 
ATOM     13  C13 UNL     1       9.705 -14.352  26.647  0.00  0.00    +0.010 A 
ATOM     14  C14 UNL     1       9.672 -15.517  25.894  0.00  0.00    +0.009 A 
ATOM     15  C15 UNL     1       9.750 -11.888  28.243  0.00  0.00    +0.010 A 
ATOM     16  C16 UNL     1       9.776 -10.725  28.995  0.00  0.00    +0.010 A 
ATOM     17  C17 UNL     1       8.596 -10.091  29.419  0.00  0.00    -0.010 A 
ATOM     18  C18 UNL     1       7.346 -10.679  29.052  0.00  0.00    -0.010 A 
ATOM     19  C19 UNL     1       6.159 -10.037  29.482  0.00  0.00    +0.010 A 
ATOM     20  C20 UNL     1       6.191  -8.872  30.235  0.00  0.00    +0.009 A 
ATOM     21  C21 UNL     1       7.401  -8.292  30.598  0.00  0.00    -0.017 A 
ATOM     22  C22 UNL     1       8.626  -8.887  30.199  0.00  0.00    -0.010 A 
ATOM     23  C23 UNL     1       9.828  -8.246  30.601  0.00  0.00    +0.009 A 
ATOM     24  C24 UNL     1       9.801  -7.074  31.361  0.00  0.00    +0.001 A 
ATOM     25  C25 UNL     1       8.587  -6.508  31.740  0.00  0.00    +0.001 A 
ATOM     26  C26 UNL     1       7.393  -7.112  31.362  0.00  0.00    +0.008 A 
ENDROOT
TORSDOF 0
ENDMDL
MODEL 6
REMARK minimizedAffinity -7.78747749
REMARK minimizedRMSD -1
REMARK  Name = /home/tchapet/Post-Doc/ARTICLES-DOSSIERS-DES-ARTICLES-EN-REDACTION/NOUVELS-AXES-DE-RECHERCHE-A-REGARDER-URGEMMENT/ARTICLES-EN-REDACTIONS/ARTICLE_MVOTO/Paper2_JCIM/docking_rerun/ligands/9168.pdb
REMARK  0 active torsions:
REMARK  status: ('A' for Active; 'I' for Inactive)
REMARK                            x       y       z     vdW  Elec       q    Type
REMARK                         _______ _______ _______ _____ _____    ______ ____
ROOT
ATOM      1  C1  UNL     1       6.280  -9.322  30.439  0.00  0.00    +0.001 A 
ATOM      2  C2  UNL     1       7.543  -8.869  30.804  0.00  0.00    +0.001 A 
ATOM      3  C3  UNL     1       8.677  -9.508  30.313  0.00  0.00    +0.008 A 
ATOM      4  C4  UNL     1       8.556 -10.610  29.449  0.00  0.00    -0.017 A 
ATOM      5  C5  UNL     1       7.277 -11.089  29.062  0.00  0.00    -0.010 A 
ATOM      6  C6  UNL     1       6.140 -10.415  29.581  0.00  0.00    +0.009 A 
ATOM      7  C7  UNL     1       7.192 -12.216  28.179  0.00  0.00    -0.010 A 
ATOM      8  C8  UNL     1       5.954 -12.735  27.761  0.00  0.00    +0.010 A 
ATOM      9  C9  UNL     1       5.868 -13.824  26.909  0.00  0.00    +0.010 A 
ATOM     10  C10 UNL     1       7.015 -14.473  26.409  0.00  0.00    -0.010 A 
ATOM     11  C11 UNL     1       8.291 -13.974  26.809  0.00  0.00    -0.010 A 
ATOM     12  C12 UNL     1       8.382 -12.843  27.696  0.00  0.00    -0.010 A 
ATOM     13  C13 UNL     1       9.627 -12.318  28.118  0.00  0.00    +0.010 A 
ATOM     14  C14 UNL     1       9.707 -11.227  28.973  0.00  0.00    +0.009 A 
ATOM     15  C15 UNL     1       9.437 -14.623  26.310  0.00  0.00    +0.010 A 
ATOM     16  C16 UNL     1       9.352 -15.711  25.457  0.00  0.00    +0.010 A 
ATOM     17  C17 UNL     1       8.114 -16.230  25.040  0.00  0.00    -0.010 A 
ATOM     18  C18 UNL     1       6.923 -15.603  25.522  0.00  0.00    -0.010 A 
ATOM     19  C19 UNL     1       5.678 -16.129  25.100  0.00  0.00    +0.010 A 
ATOM     20  C20 UNL     1       5.599 -17.219  24.246  0.00  0.00    +0.009 A 
ATOM     21  C21 UNL     1       6.750 -17.837  23.770  0.00  0.00    -0.017 A 
ATOM     22  C22 UNL     1       8.029 -17.357  24.156  0.00  0.00    -0.010 A 
ATOM     23  C23 UNL     1       9.166 -18.031  23.637  0.00  0.00    +0.009 A 
ATOM     24  C24 UNL     1       9.027 -19.124  22.779  0.00  0.00    +0.001 A 
ATOM     25  C25 UNL     1       7.762 -19.577  22.414  0.00  0.00    +0.001 A 
ATOM     26  C26 UNL     1       6.629 -18.938  22.906  0.00  0.00    +0.008 A 
ENDROOT
TORSDOF 0
ENDMDL
MODEL 7
REMARK minimizedAffinity -7.74683952
REMARK minimizedRMSD -1
REMARK  Name = /home/tchapet/Post-Doc/ARTICLES-DOSSIERS-DES-ARTICLES-EN-REDACTION/NOUVELS-AXES-DE-RECHERCHE-A-REGARDER-URGEMMENT/ARTICLES-EN-REDACTIONS/ARTICLE_MVOTO/Paper2_JCIM/docking_rerun/ligands/9168.pdb
REMARK  0 active torsions:
REMARK  status: ('A' for Active; 'I' for Inactive)
REMARK                            x       y       z     vdW  Elec       q    Type
REMARK                         _______ _______ _______ _____ _____    ______ ____
ROOT
ATOM      1  C1  UNL     1       8.188 -17.104  24.805  0.00  0.00    +0.001 A 
ATOM      2  C2  UNL     1       6.836 -17.390  24.647  0.00  0.00    +0.001 A 
ATOM      3  C3  UNL     1       5.880 -16.552  25.212  0.00  0.00    +0.008 A 
ATOM      4  C4  UNL     1       6.271 -15.418  25.944  0.00  0.00    -0.017 A 
ATOM      5  C5  UNL     1       7.644 -15.106  26.118  0.00  0.00    -0.010 A 
ATOM      6  C6  UNL     1       8.595 -15.981  25.528  0.00  0.00    +0.009 A 
ATOM      7  C7  UNL     1       8.005 -13.939  26.871  0.00  0.00    -0.010 A 
ATOM      8  C8  UNL     1       9.348 -13.580  27.076  0.00  0.00    +0.010 A 
ATOM      9  C9  UNL     1       9.700 -12.454  27.803  0.00  0.00    +0.010 A 
ATOM     10  C10 UNL     1       8.734 -11.604  28.377  0.00  0.00    -0.010 A 
ATOM     11  C11 UNL     1       7.359 -11.935  28.189  0.00  0.00    -0.010 A 
ATOM     12  C12 UNL     1       6.991 -13.105  27.435  0.00  0.00    -0.010 A 
ATOM     13  C13 UNL     1       5.639 -13.470  27.226  0.00  0.00    +0.010 A 
ATOM     14  C14 UNL     1       5.293 -14.599  26.497  0.00  0.00    +0.009 A 
ATOM     15  C15 UNL     1       6.393 -11.085  28.763  0.00  0.00    +0.010 A 
ATOM     16  C16 UNL     1       6.745  -9.959  29.490  0.00  0.00    +0.010 A 
ATOM     17  C17 UNL     1       8.088  -9.600  29.695  0.00  0.00    -0.010 A 
ATOM     18  C18 UNL     1       9.103 -10.434  29.131  0.00  0.00    -0.010 A 
ATOM     19  C19 UNL     1      10.455 -10.069  29.340  0.00  0.00    +0.010 A 
ATOM     20  C20 UNL     1      10.801  -8.940  30.069  0.00  0.00    +0.009 A 
ATOM     21  C21 UNL     1       9.823  -8.121  30.622  0.00  0.00    -0.017 A 
ATOM     22  C22 UNL     1       8.449  -8.433  30.448  0.00  0.00    -0.010 A 
ATOM     23  C23 UNL     1       7.499  -7.558  31.038  0.00  0.00    +0.009 A 
ATOM     24  C24 UNL     1       7.904  -6.434  31.761  0.00  0.00    +0.001 A 
ATOM     25  C25 UNL     1       9.257  -6.149  31.919  0.00  0.00    +0.001 A 
ATOM     26  C26 UNL     1      10.213  -6.987  31.354  0.00  0.00    +0.008 A 
ENDROOT
TORSDOF 0
ENDMDL
MODEL 8
REMARK minimizedAffinity -7.71784353
REMARK minimizedRMSD -1
REMARK  Name = /home/tchapet/Post-Doc/ARTICLES-DOSSIERS-DES-ARTICLES-EN-REDACTION/NOUVELS-AXES-DE-RECHERCHE-A-REGARDER-URGEMMENT/ARTICLES-EN-REDACTIONS/ARTICLE_MVOTO/Paper2_JCIM/docking_rerun/ligands/9168.pdb
REMARK  0 active torsions:
REMARK  status: ('A' for Active; 'I' for Inactive)
REMARK                            x       y       z     vdW  Elec       q    Type
REMARK                         _______ _______ _______ _____ _____    ______ ____
ROOT
ATOM      1  C1  UNL     1      10.501  -8.604  30.755  0.00  0.00    +0.001 A 
ATOM      2  C2  UNL     1       9.419  -7.888  31.256  0.00  0.00    +0.001 A 
ATOM      3  C3  UNL     1       8.122  -8.287  30.948  0.00  0.00    +0.008 A 
ATOM      4  C4  UNL     1       7.897  -9.409  30.133  0.00  0.00    -0.017 A 
ATOM      5  C5  UNL     1       8.985 -10.155  29.611  0.00  0.00    -0.010 A 
ATOM      6  C6  UNL     1      10.296  -9.722  29.944  0.00  0.00    +0.009 A 
ATOM      7  C7  UNL     1       8.717 -11.295  28.782  0.00  0.00    -0.010 A 
ATOM      8  C8  UNL     1       9.753 -12.072  28.237  0.00  0.00    +0.010 A 
ATOM      9  C9  UNL     1       9.498 -13.173  27.436  0.00  0.00    +0.010 A 
ATOM     10  C10 UNL     1       8.186 -13.579  27.123  0.00  0.00    -0.010 A 
ATOM     11  C11 UNL     1       7.105 -12.816  27.659  0.00  0.00    -0.010 A 
ATOM     12  C12 UNL     1       7.369 -11.671  28.491  0.00  0.00    -0.010 A 
ATOM     13  C13 UNL     1       6.327 -10.886  29.042  0.00  0.00    +0.010 A 
ATOM     14  C14 UNL     1       6.590  -9.784  29.843  0.00  0.00    +0.009 A 
ATOM     15  C15 UNL     1       5.793 -13.222  27.346  0.00  0.00    +0.010 A 
ATOM     16  C16 UNL     1       5.537 -14.324  26.545  0.00  0.00    +0.010 A 
ATOM     17  C17 UNL     1       6.574 -15.100  26.000  0.00  0.00    -0.010 A 
ATOM     18  C18 UNL     1       7.922 -14.724  26.291  0.00  0.00    -0.010 A 
ATOM     19  C19 UNL     1       8.964 -15.509  25.740  0.00  0.00    +0.010 A 
ATOM     20  C20 UNL     1       8.701 -16.611  24.939  0.00  0.00    +0.009 A 
ATOM     21  C21 UNL     1       7.394 -16.986  24.649  0.00  0.00    -0.017 A 
ATOM     22  C22 UNL     1       6.305 -16.241  25.172  0.00  0.00    -0.010 A 
ATOM     23  C23 UNL     1       4.995 -16.673  24.839  0.00  0.00    +0.009 A 
ATOM     24  C24 UNL     1       4.789 -17.792  24.027  0.00  0.00    +0.001 A 
ATOM     25  C25 UNL     1       5.872 -18.507  23.526  0.00  0.00    +0.001 A 
ATOM     26  C26 UNL     1       7.169 -18.108  23.834  0.00  0.00    +0.008 A 
ENDROOT
TORSDOF 0
ENDMDL
MODEL 9
REMARK minimizedAffinity -7.707232
REMARK minimizedRMSD -1
REMARK  Name = /home/tchapet/Post-Doc/ARTICLES-DOSSIERS-DES-ARTICLES-EN-REDACTION/NOUVELS-AXES-DE-RECHERCHE-A-REGARDER-URGEMMENT/ARTICLES-EN-REDACTIONS/ARTICLE_MVOTO/Paper2_JCIM/docking_rerun/ligands/9168.pdb
REMARK  0 active torsions:
REMARK  status: ('A' for Active; 'I' for Inactive)
REMARK                            x       y       z     vdW  Elec       q    Type
REMARK                         _______ _______ _______ _____ _____    ______ ____
ROOT
ATOM      1  C1  UNL     1       4.615 -17.725  24.085  0.00  0.00    +0.001 A 
ATOM      2  C2  UNL     1       5.680 -18.443  23.551  0.00  0.00    +0.001 A 
ATOM      3  C3  UNL     1       6.986 -18.056  23.832  0.00  0.00    +0.008 A 
ATOM      4  C4  UNL     1       7.239 -16.943  24.653  0.00  0.00    -0.017 A 
ATOM      5  C5  UNL     1       6.169 -16.196  25.208  0.00  0.00    -0.010 A 
ATOM      6  C6  UNL     1       4.847 -16.616  24.902  0.00  0.00    +0.009 A 
ATOM      7  C7  UNL     1       6.465 -15.066  26.042  0.00  0.00    -0.010 A 
ATOM      8  C8  UNL     1       5.447 -14.289  26.620  0.00  0.00    +0.010 A 
ATOM      9  C9  UNL     1       5.729 -13.196  27.424  0.00  0.00    +0.010 A 
ATOM     10  C10 UNL     1       7.051 -12.802  27.710  0.00  0.00    -0.010 A 
ATOM     11  C11 UNL     1       8.113 -13.568  27.142  0.00  0.00    -0.010 A 
ATOM     12  C12 UNL     1       7.822 -14.703  26.305  0.00  0.00    -0.010 A 
ATOM     13  C13 UNL     1       8.845 -15.489  25.721  0.00  0.00    +0.010 A 
ATOM     14  C14 UNL     1       8.555 -16.581  24.916  0.00  0.00    +0.009 A 
ATOM     15  C15 UNL     1       9.435 -13.174  27.428  0.00  0.00    +0.010 A 
ATOM     16  C16 UNL     1       9.718 -12.082  28.233  0.00  0.00    +0.010 A 
ATOM     17  C17 UNL     1       8.700 -11.304  28.811  0.00  0.00    -0.010 A 
ATOM     18  C18 UNL     1       7.342 -11.667  28.547  0.00  0.00    -0.010 A 
ATOM     19  C19 UNL     1       6.319 -10.882  29.131  0.00  0.00    +0.010 A 
ATOM     20  C20 UNL     1       6.609  -9.789  29.936  0.00  0.00    +0.009 A 
ATOM     21  C21 UNL     1       7.925  -9.427  30.200  0.00  0.00    -0.017 A 
ATOM     22  C22 UNL     1       8.996 -10.175  29.644  0.00  0.00    -0.010 A 
ATOM     23  C23 UNL     1      10.317  -9.754  29.950  0.00  0.00    +0.009 A 
ATOM     24  C24 UNL     1      10.550  -8.646  30.768  0.00  0.00    +0.001 A 
ATOM     25  C25 UNL     1       9.484  -7.928  31.301  0.00  0.00    +0.001 A 
ATOM     26  C26 UNL     1       8.178  -8.314  31.020  0.00  0.00    +0.008 A 
ENDROOT
TORSDOF 0
ENDMDL
