MODEL 1
REMARK minimizedAffinity -6.95106602
REMARK minimizedRMSD -1
REMARK  Name = /home/tchapet/Post-Doc/ARTICLES-DOSSIERS-DES-ARTICLES-EN-REDACTION/NOUVELS-AXES-DE-RECHERCHE-A-REGARDER-URGEMMENT/ARTICLES-EN-REDACTIONS/ARTICLE_MVOTO/Paper2_Sensors_ActuatorsB/docking_rerun/ligands/1712.pdb
REMARK  6 active torsions:
REMARK  status: ('A' for Active; 'I' for Inactive)
REMARK    1  A    between atoms: C4_6  and  C5_7
REMARK    2  A    between atoms: C5_7  and  N2_8
REMARK    3  A    between atoms: N2_8  and  C6_9
REMARK    4  A    between atoms: C9_12  and  S1_15
REMARK    5  A    between atoms: S1_15  and  N3_18
REMARK    6  A    between atoms: N3_18  and  C12_19
REMARK                            x       y       z     vdW  Elec       q    Type
REMARK                         _______ _______ _______ _____ _____    ______ ____
ROOT
ATOM      1  C6  UNL     1      15.657   4.580  11.145  0.00  0.00    +0.027 A 
ATOM      2  C7  UNL     1      15.203   3.341  10.666  0.00  0.00    +0.025 A 
ATOM      3  C8  UNL     1      14.823   3.191   9.329  0.00  0.00    +0.030 A 
ATOM      4  C9  UNL     1      14.887   4.280   8.453  0.00  0.00    +0.109 A 
ATOM      5  C10 UNL     1      15.343   5.519   8.920  0.00  0.00    +0.030 A 
ATOM      6  C11 UNL     1      15.723   5.670  10.257  0.00  0.00    +0.025 A 
ENDROOT
BRANCH   4   7
ATOM      7  S1  UNL     1      14.394   4.085   6.773  0.00  0.00    +0.073 S 
ATOM      8  O2  UNL     1      12.918   3.808   6.726  0.00  0.00    -0.150 OA
ATOM      9  O3  UNL     1      15.130   2.941   6.136  0.00  0.00    -0.150 OA
BRANCH   7  10
ATOM     10  N3  UNL     1      14.736   5.536   5.889  0.00  0.00    -0.199 N 
ATOM     11  H8  UNL     1      15.707   5.678   5.531  0.00  0.00    +0.175 HD
BRANCH  10  12
ATOM     12  C12 UNL     1      13.725   6.516   5.623  0.00  0.00    +0.138 A 
ATOM     13  C13 UNL     1      13.254   7.339   6.654  0.00  0.00    +0.045 A 
ATOM     14  C14 UNL     1      12.274   8.295   6.375  0.00  0.00    +0.005 A 
ATOM     15  C15 UNL     1      11.776   8.422   5.078  0.00  0.00    +0.020 A 
ATOM     16  C16 UNL     1      12.267   7.585   4.074  0.00  0.00    +0.113 A 
ATOM     17  N4  UNL     1      13.220   6.660   4.364  0.00  0.00    -0.239 NA
ENDBRANCH  10  12
ENDBRANCH   7  10
ENDBRANCH   4   7
BRANCH   1  18
ATOM     18  N2  UNL     1      16.043   4.702  12.526  0.00  0.00    -0.340 N 
ATOM     19  H3  UNL     1      15.559   4.094  13.228  0.00  0.00    +0.146 HD
BRANCH  18  20
ATOM     20  C5  UNL     1      17.097   5.608  12.988  0.00  0.00    +0.143 C 
BRANCH  20  26
ATOM     21  O1  UNL     1      14.330   7.031  13.087  0.00  0.00    -0.268 OA
ATOM     22  C1  UNL     1      15.225   7.222  13.949  0.00  0.00    +0.266 C 
ATOM     23  N1  UNL     1      15.073   8.079  15.077  0.00  0.00    -0.176 NA
ATOM     24  C2  UNL     1      16.209   7.966  15.690  0.00  0.00    +0.066 A 
ATOM     25  C3  UNL     1      17.104   7.104  15.060  0.00  0.00    +0.024 A 
ATOM     26  C4  UNL     1      16.548   6.614  13.957  0.00  0.00    +0.043 C 
ATOM     27  C17 UNL     1      18.356   6.880  15.636  0.00  0.00    +0.048 A 
ATOM     28  S2  UNL     1      19.639   5.909  15.150  0.00  0.00    -0.075 S 
ATOM     29  C18 UNL     1      20.589   6.350  16.478  0.00  0.00    +0.157 A 
ATOM     30  N5  UNL     1      19.948   7.225  17.290  0.00  0.00    -0.247 NA
ATOM     31  C19 UNL     1      18.707   7.519  16.822  0.00  0.00    +0.079 A 
ATOM     32  C20 UNL     1      17.811   8.396  17.459  0.00  0.00    +0.031 A 
ATOM     33  C21 UNL     1      16.542   8.623  16.887  0.00  0.00    +0.028 A 
ENDBRANCH  20  26
ENDBRANCH  18  20
ENDBRANCH   1  18
TORSDOF 6
ENDMDL
MODEL 2
REMARK minimizedAffinity -6.93086624
REMARK minimizedRMSD -1
REMARK  Name = /home/tchapet/Post-Doc/ARTICLES-DOSSIERS-DES-ARTICLES-EN-REDACTION/NOUVELS-AXES-DE-RECHERCHE-A-REGARDER-URGEMMENT/ARTICLES-EN-REDACTIONS/ARTICLE_MVOTO/Paper2_Sensors_ActuatorsB/docking_rerun/ligands/1712.pdb
REMARK  6 active torsions:
REMARK  status: ('A' for Active; 'I' for Inactive)
REMARK    1  A    between atoms: C4_6  and  C5_7
REMARK    2  A    between atoms: C5_7  and  N2_8
REMARK    3  A    between atoms: N2_8  and  C6_9
REMARK    4  A    between atoms: C9_12  and  S1_15
REMARK    5  A    between atoms: S1_15  and  N3_18
REMARK    6  A    between atoms: N3_18  and  C12_19
REMARK                            x       y       z     vdW  Elec       q    Type
REMARK                         _______ _______ _______ _____ _____    ______ ____
ROOT
ATOM      1  C6  UNL     1     -20.228 -30.754   8.170  0.00  0.00    +0.027 A 
ATOM      2  C7  UNL     1     -19.197 -31.631   7.797  0.00  0.00    +0.025 A 
ATOM      3  C8  UNL     1     -18.292 -32.109   8.748  0.00  0.00    +0.030 A 
ATOM      4  C9  UNL     1     -18.401 -31.714  10.086  0.00  0.00    +0.109 A 
ATOM      5  C10 UNL     1     -19.429 -30.844  10.469  0.00  0.00    +0.030 A 
ATOM      6  C11 UNL     1     -20.336 -30.364   9.518  0.00  0.00    +0.025 A 
ENDROOT
BRANCH   4   7
ATOM      7  S1  UNL     1     -17.248 -32.312  11.275  0.00  0.00    +0.073 S 
ATOM      8  O2  UNL     1     -16.202 -33.132  10.573  0.00  0.00    -0.150 OA
ATOM      9  O3  UNL     1     -17.939 -33.168  12.298  0.00  0.00    -0.150 OA
BRANCH   7  10
ATOM     10  N3  UNL     1     -16.490 -30.977  12.079  0.00  0.00    -0.199 N 
ATOM     11  H8  UNL     1     -15.993 -30.267  11.496  0.00  0.00    +0.175 HD
BRANCH  10  12
ATOM     12  C12 UNL     1     -16.551 -30.816  13.502  0.00  0.00    +0.138 A 
ATOM     13  C13 UNL     1     -17.520 -29.983  14.075  0.00  0.00    +0.045 A 
ATOM     14  C14 UNL     1     -17.571 -29.844  15.464  0.00  0.00    +0.005 A 
ATOM     15  C15 UNL     1     -16.660 -30.534  16.265  0.00  0.00    +0.020 A 
ATOM     16  C16 UNL     1     -15.707 -31.355  15.661  0.00  0.00    +0.113 A 
ATOM     17  N4  UNL     1     -15.672 -31.478  14.308  0.00  0.00    -0.239 NA
ENDBRANCH  10  12
ENDBRANCH   7  10
ENDBRANCH   4   7
BRANCH   1  18
ATOM     18  N2  UNL     1     -21.146 -30.281   7.167  0.00  0.00    -0.340 N 
ATOM     19  H3  UNL     1     -21.746 -29.455   7.400  0.00  0.00    +0.146 HD
BRANCH  18  20
ATOM     20  C5  UNL     1     -21.255 -30.878   5.834  0.00  0.00    +0.143 C 
BRANCH  20  26
ATOM     21  O1  UNL     1     -23.171 -28.474   5.342  0.00  0.00    -0.268 OA
ATOM     22  C1  UNL     1     -22.166 -28.704   4.619  0.00  0.00    +0.266 C 
ATOM     23  N1  UNL     1     -21.772 -27.886   3.522  0.00  0.00    -0.176 NA
ATOM     24  C2  UNL     1     -20.703 -28.473   3.084  0.00  0.00    +0.066 A 
ATOM     25  C3  UNL     1     -20.355 -29.614   3.803  0.00  0.00    +0.024 A 
ATOM     26  C4  UNL     1     -21.241 -29.817   4.773  0.00  0.00    +0.043 C 
ATOM     27  C17 UNL     1     -19.207 -30.324   3.443  0.00  0.00    +0.048 A 
ATOM     28  S2  UNL     1     -18.513 -31.708   4.097  0.00  0.00    -0.075 S 
ATOM     29  C18 UNL     1     -17.242 -31.703   2.981  0.00  0.00    +0.157 A 
ATOM     30  N5  UNL     1     -17.334 -30.663   2.115  0.00  0.00    -0.247 NA
ATOM     31  C19 UNL     1     -18.426 -29.898   2.373  0.00  0.00    +0.079 A 
ATOM     32  C20 UNL     1     -18.776 -28.751   1.639  0.00  0.00    +0.031 A 
ATOM     33  C21 UNL     1     -19.930 -28.025   1.999  0.00  0.00    +0.028 A 
ENDBRANCH  20  26
ENDBRANCH  18  20
ENDBRANCH   1  18
TORSDOF 6
ENDMDL
MODEL 3
REMARK minimizedAffinity -6.79570103
REMARK minimizedRMSD -1
REMARK  Name = /home/tchapet/Post-Doc/ARTICLES-DOSSIERS-DES-ARTICLES-EN-REDACTION/NOUVELS-AXES-DE-RECHERCHE-A-REGARDER-URGEMMENT/ARTICLES-EN-REDACTIONS/ARTICLE_MVOTO/Paper2_Sensors_ActuatorsB/docking_rerun/ligands/1712.pdb
REMARK  6 active torsions:
REMARK  status: ('A' for Active; 'I' for Inactive)
REMARK    1  A    between atoms: C4_6  and  C5_7
REMARK    2  A    between atoms: C5_7  and  N2_8
REMARK    3  A    between atoms: N2_8  and  C6_9
REMARK    4  A    between atoms: C9_12  and  S1_15
REMARK    5  A    between atoms: S1_15  and  N3_18
REMARK    6  A    between atoms: N3_18  and  C12_19
REMARK                            x       y       z     vdW  Elec       q    Type
REMARK                         _______ _______ _______ _____ _____    ______ ____
ROOT
ATOM      1  C6  UNL     1     -20.762 -30.424   8.467  0.00  0.00    +0.027 A 
ATOM      2  C7  UNL     1     -19.457 -30.938   8.398  0.00  0.00    +0.025 A 
ATOM      3  C8  UNL     1     -18.686 -31.076   9.555  0.00  0.00    +0.030 A 
ATOM      4  C9  UNL     1     -19.205 -30.696  10.798  0.00  0.00    +0.109 A 
ATOM      5  C10 UNL     1     -20.507 -30.186  10.877  0.00  0.00    +0.030 A 
ATOM      6  C11 UNL     1     -21.280 -30.047   9.720  0.00  0.00    +0.025 A 
ENDROOT
BRANCH   4   7
ATOM      7  S1  UNL     1     -18.221 -30.861  12.249  0.00  0.00    +0.073 S 
ATOM      8  O2  UNL     1     -18.216 -29.552  12.988  0.00  0.00    -0.150 OA
ATOM      9  O3  UNL     1     -16.809 -31.229  11.890  0.00  0.00    -0.150 OA
BRANCH   7  10
ATOM     10  N3  UNL     1     -18.882 -32.096  13.269  0.00  0.00    -0.199 N 
ATOM     11  H8  UNL     1     -18.591 -33.085  13.098  0.00  0.00    +0.175 HD
BRANCH  10  12
ATOM     12  C12 UNL     1     -19.783 -31.791  14.340  0.00  0.00    +0.138 A 
ATOM     13  C13 UNL     1     -19.299 -31.636  15.645  0.00  0.00    +0.045 A 
ATOM     14  C14 UNL     1     -20.191 -31.331  16.676  0.00  0.00    +0.005 A 
ATOM     15  C15 UNL     1     -21.550 -31.184  16.398  0.00  0.00    +0.020 A 
ATOM     16  C16 UNL     1     -22.000 -31.346  15.087  0.00  0.00    +0.113 A 
ATOM     17  N4  UNL     1     -21.117 -31.643  14.096  0.00  0.00    -0.239 NA
ENDBRANCH  10  12
ENDBRANCH   7  10
ENDBRANCH   4   7
BRANCH   1  18
ATOM     18  N2  UNL     1     -21.532 -30.297   7.257  0.00  0.00    -0.340 N 
ATOM     19  H3  UNL     1     -22.415 -29.737   7.293  0.00  0.00    +0.146 HD
BRANCH  18  20
ATOM     20  C5  UNL     1     -21.121 -30.885   5.979  0.00  0.00    +0.143 C 
BRANCH  20  26
ATOM     21  O1  UNL     1     -23.101 -28.540   5.453  0.00  0.00    -0.268 OA
ATOM     22  C1  UNL     1     -22.106 -28.770   4.718  0.00  0.00    +0.266 C 
ATOM     23  N1  UNL     1     -21.753 -27.979   3.588  0.00  0.00    -0.176 NA
ATOM     24  C2  UNL     1     -20.680 -28.555   3.146  0.00  0.00    +0.066 A 
ATOM     25  C3  UNL     1     -20.291 -29.665   3.893  0.00  0.00    +0.024 A 
ATOM     26  C4  UNL     1     -21.152 -29.857   4.886  0.00  0.00    +0.043 C 
ATOM     27  C17 UNL     1     -19.135 -30.360   3.531  0.00  0.00    +0.048 A 
ATOM     28  S2  UNL     1     -18.396 -31.707   4.213  0.00  0.00    -0.075 S 
ATOM     29  C18 UNL     1     -17.147 -31.708   3.071  0.00  0.00    +0.157 A 
ATOM     30  N5  UNL     1     -17.281 -30.698   2.176  0.00  0.00    -0.247 NA
ATOM     31  C19 UNL     1     -18.385 -29.950   2.432  0.00  0.00    +0.079 A 
ATOM     32  C20 UNL     1     -18.775 -28.834   1.671  0.00  0.00    +0.031 A 
ATOM     33  C21 UNL     1     -19.939 -28.124   2.033  0.00  0.00    +0.028 A 
ENDBRANCH  20  26
ENDBRANCH  18  20
ENDBRANCH   1  18
TORSDOF 6
ENDMDL
MODEL 4
REMARK minimizedAffinity -6.7921896
REMARK minimizedRMSD -1
REMARK  Name = /home/tchapet/Post-Doc/ARTICLES-DOSSIERS-DES-ARTICLES-EN-REDACTION/NOUVELS-AXES-DE-RECHERCHE-A-REGARDER-URGEMMENT/ARTICLES-EN-REDACTIONS/ARTICLE_MVOTO/Paper2_Sensors_ActuatorsB/docking_rerun/ligands/1712.pdb
REMARK  6 active torsions:
REMARK  status: ('A' for Active; 'I' for Inactive)
REMARK    1  A    between atoms: C4_6  and  C5_7
REMARK    2  A    between atoms: C5_7  and  N2_8
REMARK    3  A    between atoms: N2_8  and  C6_9
REMARK    4  A    between atoms: C9_12  and  S1_15
REMARK    5  A    between atoms: S1_15  and  N3_18
REMARK    6  A    between atoms: N3_18  and  C12_19
REMARK                            x       y       z     vdW  Elec       q    Type
REMARK                         _______ _______ _______ _____ _____    ______ ____
ROOT
ATOM      1  C6  UNL     1     -18.588 -31.756   7.826  0.00  0.00    +0.027 A 
ATOM      2  C7  UNL     1     -18.305 -32.820   8.699  0.00  0.00    +0.025 A 
ATOM      3  C8  UNL     1     -18.779 -32.805  10.014  0.00  0.00    +0.030 A 
ATOM      4  C9  UNL     1     -19.536 -31.723  10.478  0.00  0.00    +0.109 A 
ATOM      5  C10 UNL     1     -19.826 -30.660   9.614  0.00  0.00    +0.030 A 
ATOM      6  C11 UNL     1     -19.354 -30.674   8.297  0.00  0.00    +0.025 A 
ENDROOT
BRANCH   4   7
ATOM      7  S1  UNL     1     -20.116 -31.706  12.140  0.00  0.00    +0.073 S 
ATOM      8  O2  UNL     1     -19.545 -32.889  12.870  0.00  0.00    -0.150 OA
ATOM      9  O3  UNL     1     -21.616 -31.783  12.177  0.00  0.00    -0.150 OA
BRANCH   7  10
ATOM     10  N3  UNL     1     -19.608 -30.246  12.924  0.00  0.00    -0.199 N 
ATOM     11  H8  UNL     1     -20.274 -29.441  12.947  0.00  0.00    +0.175 HD
BRANCH  10  12
ATOM     12  C12 UNL     1     -18.326 -30.130  13.552  0.00  0.00    +0.138 A 
ATOM     13  C13 UNL     1     -17.182 -29.896  12.778  0.00  0.00    +0.045 A 
ATOM     14  C14 UNL     1     -15.940 -29.777  13.407  0.00  0.00    +0.005 A 
ATOM     15  C15 UNL     1     -15.851 -29.893  14.795  0.00  0.00    +0.020 A 
ATOM     16  C16 UNL     1     -17.010 -30.128  15.536  0.00  0.00    +0.113 A 
ATOM     17  N4  UNL     1     -18.209 -30.241  14.906  0.00  0.00    -0.239 NA
ENDBRANCH  10  12
ENDBRANCH   7  10
ENDBRANCH   4   7
BRANCH   1  18
ATOM     18  N2  UNL     1     -18.089 -31.803   6.477  0.00  0.00    -0.340 N 
ATOM     19  H3  UNL     1     -17.067 -31.635   6.324  0.00  0.00    +0.146 HD
BRANCH  18  20
ATOM     20  C5  UNL     1     -18.934 -32.105   5.319  0.00  0.00    +0.143 C 
BRANCH  20  26
ATOM     21  O1  UNL     1     -16.506 -32.428   3.398  0.00  0.00    -0.268 OA
ATOM     22  C1  UNL     1     -17.368 -31.522   3.260  0.00  0.00    +0.266 C 
ATOM     23  N1  UNL     1     -17.354 -30.566   2.205  0.00  0.00    -0.176 NA
ATOM     24  C2  UNL     1     -18.409 -29.851   2.438  0.00  0.00    +0.066 A 
ATOM     25  C3  UNL     1     -19.124 -30.256   3.564  0.00  0.00    +0.024 A 
ATOM     26  C4  UNL     1     -18.514 -31.294   4.128  0.00  0.00    +0.043 C 
ATOM     27  C17 UNL     1     -20.295 -29.579   3.909  0.00  0.00    +0.048 A 
ATOM     28  S2  UNL     1     -21.377 -29.817   5.173  0.00  0.00    -0.075 S 
ATOM     29  C18 UNL     1     -22.367 -28.535   4.682  0.00  0.00    +0.157 A 
ATOM     30  N5  UNL     1     -21.889 -27.926   3.568  0.00  0.00    -0.247 NA
ATOM     31  C19 UNL     1     -20.738 -28.507   3.140  0.00  0.00    +0.079 A 
ATOM     32  C20 UNL     1     -20.018 -28.089   2.007  0.00  0.00    +0.031 A 
ATOM     33  C21 UNL     1     -18.837 -28.770   1.648  0.00  0.00    +0.028 A 
ENDBRANCH  20  26
ENDBRANCH  18  20
ENDBRANCH   1  18
TORSDOF 6
ENDMDL
MODEL 5
REMARK minimizedAffinity -6.58280468
REMARK minimizedRMSD -1
REMARK  Name = /home/tchapet/Post-Doc/ARTICLES-DOSSIERS-DES-ARTICLES-EN-REDACTION/NOUVELS-AXES-DE-RECHERCHE-A-REGARDER-URGEMMENT/ARTICLES-EN-REDACTIONS/ARTICLE_MVOTO/Paper2_Sensors_ActuatorsB/docking_rerun/ligands/1712.pdb
REMARK  6 active torsions:
REMARK  status: ('A' for Active; 'I' for Inactive)
REMARK    1  A    between atoms: C4_6  and  C5_7
REMARK    2  A    between atoms: C5_7  and  N2_8
REMARK    3  A    between atoms: N2_8  and  C6_9
REMARK    4  A    between atoms: C9_12  and  S1_15
REMARK    5  A    between atoms: S1_15  and  N3_18
REMARK    6  A    between atoms: N3_18  and  C12_19
REMARK                            x       y       z     vdW  Elec       q    Type
REMARK                         _______ _______ _______ _____ _____    ______ ____
ROOT
ATOM      1  C6  UNL     1     -20.850 -30.415   8.419  0.00  0.00    +0.027 A 
ATOM      2  C7  UNL     1     -19.556 -30.953   8.338  0.00  0.00    +0.025 A 
ATOM      3  C8  UNL     1     -18.781 -31.118   9.489  0.00  0.00    +0.030 A 
ATOM      4  C9  UNL     1     -19.287 -30.741  10.739  0.00  0.00    +0.109 A 
ATOM      5  C10 UNL     1     -20.578 -30.207  10.830  0.00  0.00    +0.030 A 
ATOM      6  C11 UNL     1     -21.355 -30.041   9.679  0.00  0.00    +0.025 A 
ENDROOT
BRANCH   4   7
ATOM      7  S1  UNL     1     -18.298 -30.940  12.182  0.00  0.00    +0.073 S 
ATOM      8  O2  UNL     1     -18.874 -32.044  13.023  0.00  0.00    -0.150 OA
ATOM      9  O3  UNL     1     -18.276 -29.670  12.985  0.00  0.00    -0.150 OA
BRANCH   7  10
ATOM     10  N3  UNL     1     -16.675 -31.347  11.730  0.00  0.00    -0.199 N 
ATOM     11  H8  UNL     1     -16.065 -30.591  11.347  0.00  0.00    +0.175 HD
BRANCH  10  12
ATOM     12  C12 UNL     1     -16.155 -32.672  11.890  0.00  0.00    +0.138 A 
ATOM     13  C13 UNL     1     -16.447 -33.663  10.943  0.00  0.00    +0.045 A 
ATOM     14  C14 UNL     1     -15.924 -34.947  11.111  0.00  0.00    +0.005 A 
ATOM     15  C15 UNL     1     -15.120 -35.232  12.215  0.00  0.00    +0.020 A 
ATOM     16  C16 UNL     1     -14.849 -34.222  13.140  0.00  0.00    +0.113 A 
ATOM     17  N4  UNL     1     -15.367 -32.978  12.960  0.00  0.00    -0.239 NA
ENDBRANCH  10  12
ENDBRANCH   7  10
ENDBRANCH   4   7
BRANCH   1  18
ATOM     18  N2  UNL     1     -21.624 -30.260   7.215  0.00  0.00    -0.340 N 
ATOM     19  H3  UNL     1     -22.490 -29.674   7.259  0.00  0.00    +0.146 HD
BRANCH  18  20
ATOM     20  C5  UNL     1     -21.240 -30.856   5.933  0.00  0.00    +0.143 C 
BRANCH  20  26
ATOM     21  O1  UNL     1     -23.175 -28.482   5.371  0.00  0.00    -0.268 OA
ATOM     22  C1  UNL     1     -22.163 -28.719   4.661  0.00  0.00    +0.266 C 
ATOM     23  N1  UNL     1     -21.769 -27.924   3.548  0.00  0.00    -0.176 NA
ATOM     24  C2  UNL     1     -20.692 -28.511   3.131  0.00  0.00    +0.066 A 
ATOM     25  C3  UNL     1     -20.338 -29.632   3.879  0.00  0.00    +0.024 A 
ATOM     26  C4  UNL     1     -21.228 -29.820   4.847  0.00  0.00    +0.043 C 
ATOM     27  C17 UNL     1     -19.181 -30.339   3.543  0.00  0.00    +0.048 A 
ATOM     28  S2  UNL     1     -18.479 -31.700   4.234  0.00  0.00    -0.075 S 
ATOM     29  C18 UNL     1     -17.200 -31.709   3.127  0.00  0.00    +0.157 A 
ATOM     30  N5  UNL     1     -17.296 -30.691   2.236  0.00  0.00    -0.247 NA
ATOM     31  C19 UNL     1     -18.397 -29.931   2.468  0.00  0.00    +0.079 A 
ATOM     32  C20 UNL     1     -18.752 -28.804   1.706  0.00  0.00    +0.031 A 
ATOM     33  C21 UNL     1     -19.916 -28.081   2.041  0.00  0.00    +0.028 A 
ENDBRANCH  20  26
ENDBRANCH  18  20
ENDBRANCH   1  18
TORSDOF 6
ENDMDL
MODEL 6
REMARK minimizedAffinity -6.54382038
REMARK minimizedRMSD -1
REMARK  Name = /home/tchapet/Post-Doc/ARTICLES-DOSSIERS-DES-ARTICLES-EN-REDACTION/NOUVELS-AXES-DE-RECHERCHE-A-REGARDER-URGEMMENT/ARTICLES-EN-REDACTIONS/ARTICLE_MVOTO/Paper2_Sensors_ActuatorsB/docking_rerun/ligands/1712.pdb
REMARK  6 active torsions:
REMARK  status: ('A' for Active; 'I' for Inactive)
REMARK    1  A    between atoms: C4_6  and  C5_7
REMARK    2  A    between atoms: C5_7  and  N2_8
REMARK    3  A    between atoms: N2_8  and  C6_9
REMARK    4  A    between atoms: C9_12  and  S1_15
REMARK    5  A    between atoms: S1_15  and  N3_18
REMARK    6  A    between atoms: N3_18  and  C12_19
REMARK                            x       y       z     vdW  Elec       q    Type
REMARK                         _______ _______ _______ _____ _____    ______ ____
ROOT
ATOM      1  C6  UNL     1     -20.895 -30.734   6.589  0.00  0.00    +0.027 A 
ATOM      2  C7  UNL     1     -19.615 -31.133   6.173  0.00  0.00    +0.025 A 
ATOM      3  C8  UNL     1     -18.692 -31.634   7.095  0.00  0.00    +0.030 A 
ATOM      4  C9  UNL     1     -19.033 -31.737   8.449  0.00  0.00    +0.109 A 
ATOM      5  C10 UNL     1     -20.308 -31.345   8.872  0.00  0.00    +0.030 A 
ATOM      6  C11 UNL     1     -21.234 -30.844   7.951  0.00  0.00    +0.025 A 
ENDROOT
BRANCH   4   7
ATOM      7  S1  UNL     1     -17.858 -32.356   9.605  0.00  0.00    +0.073 S 
ATOM      8  O2  UNL     1     -16.818 -33.152   8.869  0.00  0.00    -0.150 OA
ATOM      9  O3  UNL     1     -18.530 -33.241  10.617  0.00  0.00    -0.150 OA
BRANCH   7  10
ATOM     10  N3  UNL     1     -17.096 -31.036  10.430  0.00  0.00    -0.199 N 
ATOM     11  H8  UNL     1     -16.431 -30.436   9.892  0.00  0.00    +0.175 HD
BRANCH  10  12
ATOM     12  C12 UNL     1     -17.373 -30.741  11.805  0.00  0.00    +0.138 A 
ATOM     13  C13 UNL     1     -16.326 -30.658  12.732  0.00  0.00    +0.045 A 
ATOM     14  C14 UNL     1     -16.614 -30.361  14.066  0.00  0.00    +0.005 A 
ATOM     15  C15 UNL     1     -17.935 -30.150  14.462  0.00  0.00    +0.020 A 
ATOM     16  C16 UNL     1     -18.954 -30.241  13.513  0.00  0.00    +0.113 A 
ATOM     17  N4  UNL     1     -18.655 -30.531  12.219  0.00  0.00    -0.239 NA
ENDBRANCH  10  12
ENDBRANCH   7  10
ENDBRANCH   4   7
BRANCH   1  18
ATOM     18  N2  UNL     1     -21.824 -30.225   5.615  0.00  0.00    -0.340 N 
ATOM     19  H3  UNL     1     -22.481 -29.466   5.911  0.00  0.00    +0.146 HD
BRANCH  18  20
ATOM     20  C5  UNL     1     -21.869 -30.695   4.228  0.00  0.00    +0.143 C 
BRANCH  20  26
ATOM     21  O1  UNL     1     -21.637 -27.597   4.024  0.00  0.00    -0.268 OA
ATOM     22  C1  UNL     1     -20.945 -28.380   3.323  0.00  0.00    +0.266 C 
ATOM     23  N1  UNL     1     -19.963 -27.951   2.385  0.00  0.00    -0.176 NA
ATOM     24  C2  UNL     1     -19.497 -29.063   1.912  0.00  0.00    +0.066 A 
ATOM     25  C3  UNL     1     -20.090 -30.198   2.462  0.00  0.00    +0.024 A 
ATOM     26  C4  UNL     1     -21.013 -29.834   3.346  0.00  0.00    +0.043 C 
ATOM     27  C17 UNL     1     -19.658 -31.461   2.051  0.00  0.00    +0.048 A 
ATOM     28  S2  UNL     1     -20.146 -33.001   2.515  0.00  0.00    -0.075 S 
ATOM     29  C18 UNL     1     -19.047 -33.757   1.474  0.00  0.00    +0.157 A 
ATOM     30  N5  UNL     1     -18.311 -32.856   0.776  0.00  0.00    -0.247 NA
ATOM     31  C19 UNL     1     -18.652 -31.581   1.097  0.00  0.00    +0.079 A 
ATOM     32  C20 UNL     1     -18.053 -30.440   0.534  0.00  0.00    +0.031 A 
ATOM     33  C21 UNL     1     -18.480 -29.161   0.948  0.00  0.00    +0.028 A 
ENDBRANCH  20  26
ENDBRANCH  18  20
ENDBRANCH   1  18
TORSDOF 6
ENDMDL
MODEL 7
REMARK minimizedAffinity -6.50188303
REMARK minimizedRMSD -1
REMARK  Name = /home/tchapet/Post-Doc/ARTICLES-DOSSIERS-DES-ARTICLES-EN-REDACTION/NOUVELS-AXES-DE-RECHERCHE-A-REGARDER-URGEMMENT/ARTICLES-EN-REDACTIONS/ARTICLE_MVOTO/Paper2_Sensors_ActuatorsB/docking_rerun/ligands/1712.pdb
REMARK  6 active torsions:
REMARK  status: ('A' for Active; 'I' for Inactive)
REMARK    1  A    between atoms: C4_6  and  C5_7
REMARK    2  A    between atoms: C5_7  and  N2_8
REMARK    3  A    between atoms: N2_8  and  C6_9
REMARK    4  A    between atoms: C9_12  and  S1_15
REMARK    5  A    between atoms: S1_15  and  N3_18
REMARK    6  A    between atoms: N3_18  and  C12_19
REMARK                            x       y       z     vdW  Elec       q    Type
REMARK                         _______ _______ _______ _____ _____    ______ ____
ROOT
ATOM      1  C6  UNL     1      -0.879 -10.311   3.342  0.00  0.00    +0.027 A 
ATOM      2  C7  UNL     1      -0.978 -10.850   4.634  0.00  0.00    +0.025 A 
ATOM      3  C8  UNL     1      -0.675 -10.070   5.754  0.00  0.00    +0.030 A 
ATOM      4  C9  UNL     1      -0.263  -8.742   5.597  0.00  0.00    +0.109 A 
ATOM      5  C10 UNL     1      -0.165  -8.196   4.312  0.00  0.00    +0.030 A 
ATOM      6  C11 UNL     1      -0.468  -8.974   3.190  0.00  0.00    +0.025 A 
ENDROOT
BRANCH   4   7
ATOM      7  S1  UNL     1       0.131  -7.772   7.013  0.00  0.00    +0.073 S 
ATOM      8  O2  UNL     1      -0.449  -8.430   8.234  0.00  0.00    -0.150 OA
ATOM      9  O3  UNL     1      -0.441  -6.389   6.881  0.00  0.00    -0.150 OA
BRANCH   7  10
ATOM     10  N3  UNL     1       1.851  -7.655   7.185  0.00  0.00    -0.199 N 
ATOM     11  H8  UNL     1       2.332  -8.335   7.816  0.00  0.00    +0.175 HD
BRANCH  10  12
ATOM     12  C12 UNL     1       2.618  -6.678   6.471  0.00  0.00    +0.138 A 
ATOM     13  C13 UNL     1       2.924  -5.449   7.070  0.00  0.00    +0.045 A 
ATOM     14  C14 UNL     1       3.680  -4.511   6.362  0.00  0.00    +0.005 A 
ATOM     15  C15 UNL     1       4.123  -4.805   5.072  0.00  0.00    +0.020 A 
ATOM     16  C16 UNL     1       3.800  -6.039   4.505  0.00  0.00    +0.113 A 
ATOM     17  N4  UNL     1       3.062  -6.939   5.208  0.00  0.00    -0.239 NA
ENDBRANCH  10  12
ENDBRANCH   7  10
ENDBRANCH   4   7
BRANCH   1  18
ATOM     18  N2  UNL     1      -1.201 -11.139   2.209  0.00  0.00    -0.340 N 
ATOM     19  H3  UNL     1      -1.136 -12.178   2.324  0.00  0.00    +0.146 HD
BRANCH  18  20
ATOM     20  C5  UNL     1      -1.641 -10.599   0.920  0.00  0.00    +0.143 C 
BRANCH  20  26
ATOM     21  O1  UNL     1       0.514 -12.846   0.916  0.00  0.00    -0.268 OA
ATOM     22  C1  UNL     1      -0.032 -12.424  -0.136  0.00  0.00    +0.266 C 
ATOM     23  N1  UNL     1       0.244 -12.936  -1.435  0.00  0.00    -0.176 NA
ATOM     24  C2  UNL     1      -0.533 -12.237  -2.201  0.00  0.00    +0.066 A 
ATOM     25  C3  UNL     1      -1.305 -11.302  -1.514  0.00  0.00    +0.024 A 
ATOM     26  C4  UNL     1      -1.027 -11.364  -0.216  0.00  0.00    +0.043 C 
ATOM     27  C17 UNL     1      -2.201 -10.502  -2.225  0.00  0.00    +0.048 A 
ATOM     28  S2  UNL     1      -3.267  -9.309  -1.710  0.00  0.00    -0.075 S 
ATOM     29  C18 UNL     1      -3.828  -9.011  -3.278  0.00  0.00    +0.157 A 
ATOM     30  N5  UNL     1      -3.219  -9.806  -4.192  0.00  0.00    -0.247 NA
ATOM     31  C19 UNL     1      -2.315 -10.634  -3.606  0.00  0.00    +0.079 A 
ATOM     32  C20 UNL     1      -1.535 -11.571  -4.306  0.00  0.00    +0.031 A 
ATOM     33  C21 UNL     1      -0.631 -12.387  -3.595  0.00  0.00    +0.028 A 
ENDBRANCH  20  26
ENDBRANCH  18  20
ENDBRANCH   1  18
TORSDOF 6
ENDMDL
MODEL 8
REMARK minimizedAffinity -6.46640062
REMARK minimizedRMSD -1
REMARK  Name = /home/tchapet/Post-Doc/ARTICLES-DOSSIERS-DES-ARTICLES-EN-REDACTION/NOUVELS-AXES-DE-RECHERCHE-A-REGARDER-URGEMMENT/ARTICLES-EN-REDACTIONS/ARTICLE_MVOTO/Paper2_Sensors_ActuatorsB/docking_rerun/ligands/1712.pdb
REMARK  6 active torsions:
REMARK  status: ('A' for Active; 'I' for Inactive)
REMARK    1  A    between atoms: C4_6  and  C5_7
REMARK    2  A    between atoms: C5_7  and  N2_8
REMARK    3  A    between atoms: N2_8  and  C6_9
REMARK    4  A    between atoms: C9_12  and  S1_15
REMARK    5  A    between atoms: S1_15  and  N3_18
REMARK    6  A    between atoms: N3_18  and  C12_19
REMARK                            x       y       z     vdW  Elec       q    Type
REMARK                         _______ _______ _______ _____ _____    ______ ____
ROOT
ATOM      1  C6  UNL     1      16.237   6.007  13.308  0.00  0.00    +0.027 A 
ATOM      2  C7  UNL     1      15.425   7.097  13.659  0.00  0.00    +0.025 A 
ATOM      3  C8  UNL     1      15.785   7.942  14.712  0.00  0.00    +0.030 A 
ATOM      4  C9  UNL     1      16.960   7.706  15.435  0.00  0.00    +0.109 A 
ATOM      5  C10 UNL     1      17.778   6.623  15.090  0.00  0.00    +0.030 A 
ATOM      6  C11 UNL     1      17.420   5.777  14.036  0.00  0.00    +0.025 A 
ENDROOT
BRANCH   4   7
ATOM      7  S1  UNL     1      17.398   8.768  16.770  0.00  0.00    +0.073 S 
ATOM      8  O2  UNL     1      16.375   8.630  17.861  0.00  0.00    -0.150 OA
ATOM      9  O3  UNL     1      17.442  10.199  16.313  0.00  0.00    -0.150 OA
BRANCH   7  10
ATOM     10  N3  UNL     1      18.958   8.325  17.383  0.00  0.00    -0.199 N 
ATOM     11  H8  UNL     1      19.797   8.817  16.999  0.00  0.00    +0.175 HD
BRANCH  10  12
ATOM     12  C12 UNL     1      19.116   7.335  18.406  0.00  0.00    +0.138 A 
ATOM     13  C13 UNL     1      19.672   6.087  18.098  0.00  0.00    +0.045 A 
ATOM     14  C14 UNL     1      19.827   5.136  19.110  0.00  0.00    +0.005 A 
ATOM     15  C15 UNL     1      19.427   5.436  20.412  0.00  0.00    +0.020 A 
ATOM     16  C16 UNL     1      18.876   6.689  20.685  0.00  0.00    +0.113 A 
ATOM     17  N4  UNL     1      18.733   7.602  19.688  0.00  0.00    -0.239 NA
ENDBRANCH  10  12
ENDBRANCH   7  10
ENDBRANCH   4   7
BRANCH   1  18
ATOM     18  N2  UNL     1      15.840   5.157  12.217  0.00  0.00    -0.340 N 
ATOM     19  H3  UNL     1      15.161   4.385  12.416  0.00  0.00    +0.146 HD
BRANCH  18  20
ATOM     20  C5  UNL     1      16.315   5.340  10.843  0.00  0.00    +0.143 C 
BRANCH  20  26
ATOM     21  O1  UNL     1      15.292   2.405  11.003  0.00  0.00    -0.268 OA
ATOM     22  C1  UNL     1      15.028   3.167  10.038  0.00  0.00    +0.266 C 
ATOM     23  N1  UNL     1      14.214   2.793   8.930  0.00  0.00    -0.176 NA
ATOM     24  C2  UNL     1      14.198   3.864   8.200  0.00  0.00    +0.066 A 
ATOM     25  C3  UNL     1      14.934   4.919   8.734  0.00  0.00    +0.024 A 
ATOM     26  C4  UNL     1      15.487   4.539   9.882  0.00  0.00    +0.043 C 
ATOM     27  C17 UNL     1      14.976   6.136   8.052  0.00  0.00    +0.048 A 
ATOM     28  S2  UNL     1      15.746   7.584   8.421  0.00  0.00    -0.075 S 
ATOM     29  C18 UNL     1      15.174   8.345   7.022  0.00  0.00    +0.157 A 
ATOM     30  N5  UNL     1      14.404   7.516   6.275  0.00  0.00    -0.247 NA
ATOM     31  C19 UNL     1      14.295   6.289   6.848  0.00  0.00    +0.079 A 
ATOM     32  C20 UNL     1      13.555   5.227   6.300  0.00  0.00    +0.031 A 
ATOM     33  C21 UNL     1      13.503   3.995   6.986  0.00  0.00    +0.028 A 
ENDBRANCH  20  26
ENDBRANCH  18  20
ENDBRANCH   1  18
TORSDOF 6
ENDMDL
MODEL 9
REMARK minimizedAffinity -6.41881227
REMARK minimizedRMSD -1
REMARK  Name = /home/tchapet/Post-Doc/ARTICLES-DOSSIERS-DES-ARTICLES-EN-REDACTION/NOUVELS-AXES-DE-RECHERCHE-A-REGARDER-URGEMMENT/ARTICLES-EN-REDACTIONS/ARTICLE_MVOTO/Paper2_Sensors_ActuatorsB/docking_rerun/ligands/1712.pdb
REMARK  6 active torsions:
REMARK  status: ('A' for Active; 'I' for Inactive)
REMARK    1  A    between atoms: C4_6  and  C5_7
REMARK    2  A    between atoms: C5_7  and  N2_8
REMARK    3  A    between atoms: N2_8  and  C6_9
REMARK    4  A    between atoms: C9_12  and  S1_15
REMARK    5  A    between atoms: S1_15  and  N3_18
REMARK    6  A    between atoms: N3_18  and  C12_19
REMARK                            x       y       z     vdW  Elec       q    Type
REMARK                         _______ _______ _______ _____ _____    ______ ____
ROOT
ATOM      1  C6  UNL     1      11.377  28.220  19.293  0.00  0.00    +0.027 A 
ATOM      2  C7  UNL     1      10.880  27.501  18.193  0.00  0.00    +0.025 A 
ATOM      3  C8  UNL     1      10.196  28.157  17.166  0.00  0.00    +0.030 A 
ATOM      4  C9  UNL     1       9.994  29.541  17.225  0.00  0.00    +0.109 A 
ATOM      5  C10 UNL     1      10.489  30.266  18.316  0.00  0.00    +0.030 A 
ATOM      6  C11 UNL     1      11.174  29.612  19.345  0.00  0.00    +0.025 A 
ENDROOT
BRANCH   4   7
ATOM      7  S1  UNL     1       9.120  30.357  15.932  0.00  0.00    +0.073 S 
ATOM      8  O2  UNL     1       9.978  31.461  15.382  0.00  0.00    -0.150 OA
ATOM      9  O3  UNL     1       7.837  30.942  16.451  0.00  0.00    -0.150 OA
BRANCH   7  10
ATOM     10  N3  UNL     1       8.753  29.228  14.669  0.00  0.00    -0.199 N 
ATOM     11  H8  UNL     1       8.016  28.509  14.849  0.00  0.00    +0.175 HD
BRANCH  10  12
ATOM     12  C12 UNL     1       9.409  29.276  13.397  0.00  0.00    +0.138 A 
ATOM     13  C13 UNL     1      10.691  28.729  13.245  0.00  0.00    +0.045 A 
ATOM     14  C14 UNL     1      11.313  28.778  11.995  0.00  0.00    +0.005 A 
ATOM     15  C15 UNL     1      10.656  29.366  10.914  0.00  0.00    +0.020 A 
ATOM     16  C16 UNL     1       9.380  29.901  11.100  0.00  0.00    +0.113 A 
ATOM     17  N4  UNL     1       8.791  29.846  12.324  0.00  0.00    -0.239 NA
ENDBRANCH  10  12
ENDBRANCH   7  10
ENDBRANCH   4   7
BRANCH   1  18
ATOM     18  N2  UNL     1      12.078  27.515  20.334  0.00  0.00    -0.340 N 
ATOM     19  H3  UNL     1      12.483  26.577  20.107  0.00  0.00    +0.146 HD
BRANCH  18  20
ATOM     20  C5  UNL     1      12.279  28.063  21.678  0.00  0.00    +0.143 C 
BRANCH  20  26
ATOM     21  O1  UNL     1      10.808  25.319  21.643  0.00  0.00    -0.268 OA
ATOM     22  C1  UNL     1      10.667  26.156  22.573  0.00  0.00    +0.266 C 
ATOM     23  N1  UNL     1       9.853  25.940  23.721  0.00  0.00    -0.176 NA
ATOM     24  C2  UNL     1      10.011  27.029  24.405  0.00  0.00    +0.066 A 
ATOM     25  C3  UNL     1      10.866  27.950  23.805  0.00  0.00    +0.024 A 
ATOM     26  C4  UNL     1      11.302  27.464  22.647  0.00  0.00    +0.043 C 
ATOM     27  C17 UNL     1      11.136  29.156  24.456  0.00  0.00    +0.048 A 
ATOM     28  S2  UNL     1      12.113  30.453  24.020  0.00  0.00    -0.075 S 
ATOM     29  C18 UNL     1      11.743  31.316  25.427  0.00  0.00    +0.157 A 
ATOM     30  N5  UNL     1      10.887  30.634  26.228  0.00  0.00    -0.247 NA
ATOM     31  C19 UNL     1      10.551  29.434  25.688  0.00  0.00    +0.079 A 
ATOM     32  C20 UNL     1       9.682  28.511  26.296  0.00  0.00    +0.031 A 
ATOM     33  C21 UNL     1       9.408  27.289  25.648  0.00  0.00    +0.028 A 
ENDBRANCH  20  26
ENDBRANCH  18  20
ENDBRANCH   1  18
TORSDOF 6
ENDMDL
