MODEL 1
REMARK minimizedAffinity -7.5605979
REMARK minimizedRMSD -1
REMARK  Name = /home/tchapet/Post-Doc/ARTICLES-DOSSIERS-DES-ARTICLES-EN-REDACTION/NOUVELS-AXES-DE-RECHERCHE-A-REGARDER-URGEMMENT/ARTICLES-EN-REDACTIONS/ARTICLE_MVOTO/Paper2_JCIM/docking_rerun/ligands/17574.pdb
REMARK  8 active torsions:
REMARK  status: ('A' for Active; 'I' for Inactive)
REMARK    1  A    between atoms: C1_1  and  C2_2
REMARK    2  A    between atoms: N1_4  and  C3_5
REMARK    3  A    between atoms: N1_4  and  C23_33
REMARK    4  A    between atoms: C6_8  and  N2_11
REMARK    5  A    between atoms: N2_11  and  C9_12
REMARK    6  A    between atoms: C11_14  and  S1_29
REMARK    7  A    between atoms: C12_15  and  N3_28
REMARK    8  A    between atoms: S1_29  and  O6_32
REMARK                            x       y       z     vdW  Elec       q    Type
REMARK                         _______ _______ _______ _____ _____    ______ ____
ROOT
ATOM      1  C9  UNL     1     -14.067  20.567  43.812  0.00  0.00    +0.045 A 
ATOM      2  C10 UNL     1     -13.431  21.055  44.952  0.00  0.00    +0.055 A 
ATOM      3  C11 UNL     1     -13.845  22.240  45.559  0.00  0.00    +0.140 A 
ATOM      4  C12 UNL     1     -14.896  22.991  44.988  0.00  0.00    +0.064 A 
ATOM      5  C13 UNL     1     -15.523  22.532  43.795  0.00  0.00    +0.057 A 
ATOM      6  C14 UNL     1     -15.166  21.269  43.258  0.00  0.00    +0.056 A 
ATOM      7  C15 UNL     1     -15.981  20.689  42.150  0.00  0.00    +0.196 C 
ATOM      8  O2  UNL     1     -15.829  19.485  41.807  0.00  0.00    -0.287 OA
ATOM      9  C16 UNL     1     -17.026  21.497  41.486  0.00  0.00    +0.033 A 
ATOM     10  C17 UNL     1     -17.767  20.969  40.413  0.00  0.00    +0.012 A 
ATOM     11  C18 UNL     1     -18.753  21.735  39.788  0.00  0.00    +0.001 A 
ATOM     12  C19 UNL     1     -19.009  23.034  40.225  0.00  0.00    +0.001 A 
ATOM     13  C20 UNL     1     -18.279  23.571  41.287  0.00  0.00    +0.012 A 
ATOM     14  C21 UNL     1     -17.284  22.808  41.927  0.00  0.00    +0.033 A 
ATOM     15  C22 UNL     1     -16.501  23.377  43.046  0.00  0.00    +0.196 C 
ATOM     16  O3  UNL     1     -16.618  24.606  43.306  0.00  0.00    -0.287 OA
ENDROOT
BRANCH   4  17
ATOM     17  N3  UNL     1     -15.364  24.175  45.653  0.00  0.00    -0.356 N 
ATOM     18  H14 UNL     1     -14.725  24.777  46.215  0.00  0.00    +0.142 HD
ATOM     19  H15 UNL     1     -16.382  24.401  45.687  0.00  0.00    +0.142 HD
ENDBRANCH   4  17
BRANCH   3  20
ATOM     20  S1  UNL     1     -13.038  22.750  47.050  0.00  0.00    +0.111 S 
ATOM     21  O4  UNL     1     -12.907  24.248  47.060  0.00  0.00    -0.142 OA
ATOM     22  O5  UNL     1     -13.842  22.298  48.237  0.00  0.00    -0.142 OA
BRANCH  20  23
ATOM     23  O6  UNL     1     -11.504  22.065  47.146  0.00  0.00    -0.250 OA
ATOM     24  H16 UNL     1     -11.123  22.409  47.994  0.00  0.00    +0.245 HD
ENDBRANCH  20  23
ENDBRANCH   3  20
BRANCH   1  25
ATOM     25  N2  UNL     1     -13.554  19.364  43.220  0.00  0.00    -0.314 N 
ATOM     26  H8  UNL     1     -13.561  19.302  42.177  0.00  0.00    +0.152 HD
BRANCH  25  30
ATOM     27  C3  UNL     1     -12.567  15.877  45.462  0.00  0.00    +0.036 A 
ATOM     28  C4  UNL     1     -11.562  16.706  44.940  0.00  0.00    +0.025 A 
ATOM     29  C5  UNL     1     -11.897  17.845  44.203  0.00  0.00    +0.025 A 
ATOM     30  C6  UNL     1     -13.240  18.179  43.977  0.00  0.00    +0.031 A 
ATOM     31  C7  UNL     1     -14.248  17.343  44.495  0.00  0.00    +0.025 A 
ATOM     32  C8  UNL     1     -13.913  16.206  45.234  0.00  0.00    +0.025 A 
BRANCH  27  36
ATOM     33  C1  UNL     1     -11.381  12.282  46.327  0.00  0.00    +0.109 C 
ATOM     34  C2  UNL     1     -11.848  13.484  45.561  0.00  0.00    +0.216 C 
ATOM     35  O1  UNL     1     -11.921  13.405  44.304  0.00  0.00    -0.276 OA
ATOM     36  N1  UNL     1     -12.220  14.708  46.232  0.00  0.00    -0.275 N 
ATOM     37  C23 UNL     1     -12.375  14.740  47.690  0.00  0.00    +0.138 C 
ENDBRANCH  27  36
ENDBRANCH  25  30
ENDBRANCH   1  25
TORSDOF 6
ENDMDL
MODEL 2
REMARK minimizedAffinity -7.50639296
REMARK minimizedRMSD -1
REMARK  Name = /home/tchapet/Post-Doc/ARTICLES-DOSSIERS-DES-ARTICLES-EN-REDACTION/NOUVELS-AXES-DE-RECHERCHE-A-REGARDER-URGEMMENT/ARTICLES-EN-REDACTIONS/ARTICLE_MVOTO/Paper2_JCIM/docking_rerun/ligands/17574.pdb
REMARK  8 active torsions:
REMARK  status: ('A' for Active; 'I' for Inactive)
REMARK    1  A    between atoms: C1_1  and  C2_2
REMARK    2  A    between atoms: N1_4  and  C3_5
REMARK    3  A    between atoms: N1_4  and  C23_33
REMARK    4  A    between atoms: C6_8  and  N2_11
REMARK    5  A    between atoms: N2_11  and  C9_12
REMARK    6  A    between atoms: C11_14  and  S1_29
REMARK    7  A    between atoms: C12_15  and  N3_28
REMARK    8  A    between atoms: S1_29  and  O6_32
REMARK                            x       y       z     vdW  Elec       q    Type
REMARK                         _______ _______ _______ _____ _____    ______ ____
ROOT
ATOM      1  C9  UNL     1     -16.851  23.230  43.028  0.00  0.00    +0.045 A 
ATOM      2  C10 UNL     1     -16.898  22.507  41.837  0.00  0.00    +0.055 A 
ATOM      3  C11 UNL     1     -18.113  22.166  41.246  0.00  0.00    +0.140 A 
ATOM      4  C12 UNL     1     -19.325  22.514  41.883  0.00  0.00    +0.064 A 
ATOM      5  C13 UNL     1     -19.295  23.209  43.125  0.00  0.00    +0.057 A 
ATOM      6  C14 UNL     1     -18.053  23.647  43.651  0.00  0.00    +0.056 A 
ATOM      7  C15 UNL     1     -18.041  24.570  44.824  0.00  0.00    +0.196 C 
ATOM      8  O2  UNL     1     -16.976  25.149  45.171  0.00  0.00    -0.287 OA
ATOM      9  C16 UNL     1     -19.292  24.873  45.552  0.00  0.00    +0.033 A 
ATOM     10  C17 UNL     1     -19.278  25.709  46.685  0.00  0.00    +0.012 A 
ATOM     11  C18 UNL     1     -20.461  25.993  47.369  0.00  0.00    +0.001 A 
ATOM     12  C19 UNL     1     -21.667  25.445  46.935  0.00  0.00    +0.001 A 
ATOM     13  C20 UNL     1     -21.695  24.613  45.814  0.00  0.00    +0.012 A 
ATOM     14  C21 UNL     1     -20.509  24.321  45.114  0.00  0.00    +0.033 A 
ATOM     15  C22 UNL     1     -20.532  23.431  43.932  0.00  0.00    +0.196 C 
ATOM     16  O3  UNL     1     -21.593  22.803  43.665  0.00  0.00    -0.287 OA
ENDROOT
BRANCH   4  17
ATOM     17  N3  UNL     1     -20.574  22.221  41.238  0.00  0.00    -0.356 N 
ATOM     18  H14 UNL     1     -20.691  21.388  40.622  0.00  0.00    +0.142 HD
ATOM     19  H15 UNL     1     -21.366  22.898  41.276  0.00  0.00    +0.142 HD
ENDBRANCH   4  17
BRANCH   3  20
ATOM     20  S1  UNL     1     -18.087  21.316  39.693  0.00  0.00    +0.111 S 
ATOM     21  O4  UNL     1     -16.662  21.066  39.285  0.00  0.00    -0.142 OA
ATOM     22  O5  UNL     1     -18.820  20.011  39.821  0.00  0.00    -0.142 OA
BRANCH  20  23
ATOM     23  O6  UNL     1     -18.841  22.244  38.509  0.00  0.00    -0.250 OA
ATOM     24  H16 UNL     1     -18.771  21.706  37.680  0.00  0.00    +0.245 HD
ENDBRANCH  20  23
ENDBRANCH   3  20
BRANCH   1  25
ATOM     25  N2  UNL     1     -15.562  23.505  43.597  0.00  0.00    -0.314 N 
ATOM     26  H8  UNL     1     -15.037  24.327  43.221  0.00  0.00    +0.152 HD
BRANCH  25  30
ATOM     27  C3  UNL     1     -13.593  20.805  46.241  0.00  0.00    +0.036 A 
ATOM     28  C4  UNL     1     -14.989  20.942  46.260  0.00  0.00    +0.025 A 
ATOM     29  C5  UNL     1     -15.625  21.833  45.392  0.00  0.00    +0.025 A 
ATOM     30  C6  UNL     1     -14.878  22.601  44.486  0.00  0.00    +0.031 A 
ATOM     31  C7  UNL     1     -13.476  22.468  44.471  0.00  0.00    +0.025 A 
ATOM     32  C8  UNL     1     -12.842  21.575  45.338  0.00  0.00    +0.025 A 
BRANCH  27  36
ATOM     33  C1  UNL     1     -11.933  19.345  49.434  0.00  0.00    +0.109 C 
ATOM     34  C2  UNL     1     -12.520  20.307  48.444  0.00  0.00    +0.216 C 
ATOM     35  O1  UNL     1     -12.634  21.518  48.779  0.00  0.00    -0.276 OA
ATOM     36  N1  UNL     1     -12.939  19.877  47.130  0.00  0.00    -0.275 N 
ATOM     37  C23 UNL     1     -12.592  18.540  46.639  0.00  0.00    +0.138 C 
ENDBRANCH  27  36
ENDBRANCH  25  30
ENDBRANCH   1  25
TORSDOF 6
ENDMDL
MODEL 3
REMARK minimizedAffinity -7.31443119
REMARK minimizedRMSD -1
REMARK  Name = /home/tchapet/Post-Doc/ARTICLES-DOSSIERS-DES-ARTICLES-EN-REDACTION/NOUVELS-AXES-DE-RECHERCHE-A-REGARDER-URGEMMENT/ARTICLES-EN-REDACTIONS/ARTICLE_MVOTO/Paper2_JCIM/docking_rerun/ligands/17574.pdb
REMARK  8 active torsions:
REMARK  status: ('A' for Active; 'I' for Inactive)
REMARK    1  A    between atoms: C1_1  and  C2_2
REMARK    2  A    between atoms: N1_4  and  C3_5
REMARK    3  A    between atoms: N1_4  and  C23_33
REMARK    4  A    between atoms: C6_8  and  N2_11
REMARK    5  A    between atoms: N2_11  and  C9_12
REMARK    6  A    between atoms: C11_14  and  S1_29
REMARK    7  A    between atoms: C12_15  and  N3_28
REMARK    8  A    between atoms: S1_29  and  O6_32
REMARK                            x       y       z     vdW  Elec       q    Type
REMARK                         _______ _______ _______ _____ _____    ______ ____
ROOT
ATOM      1  C9  UNL     1     -16.821  22.672  43.231  0.00  0.00    +0.045 A 
ATOM      2  C10 UNL     1     -16.882  22.072  41.975  0.00  0.00    +0.055 A 
ATOM      3  C11 UNL     1     -18.087  21.969  41.282  0.00  0.00    +0.140 A 
ATOM      4  C12 UNL     1     -19.280  22.436  41.876  0.00  0.00    +0.064 A 
ATOM      5  C13 UNL     1     -19.243  23.007  43.180  0.00  0.00    +0.057 A 
ATOM      6  C14 UNL     1     -17.993  23.207  43.820  0.00  0.00    +0.056 A 
ATOM      7  C15 UNL     1     -17.937  24.011  45.077  0.00  0.00    +0.196 C 
ATOM      8  O2  UNL     1     -16.828  24.392  45.542  0.00  0.00    -0.287 OA
ATOM      9  C16 UNL     1     -19.182  24.430  45.755  0.00  0.00    +0.033 A 
ATOM     10  C17 UNL     1     -19.132  25.152  46.962  0.00  0.00    +0.012 A 
ATOM     11  C18 UNL     1     -20.310  25.547  47.599  0.00  0.00    +0.001 A 
ATOM     12  C19 UNL     1     -21.547  25.226  47.042  0.00  0.00    +0.001 A 
ATOM     13  C20 UNL     1     -21.610  24.509  45.845  0.00  0.00    +0.012 A 
ATOM     14  C21 UNL     1     -20.429  24.107  45.192  0.00  0.00    +0.033 A 
ATOM     15  C22 UNL     1     -20.492  23.338  43.929  0.00  0.00    +0.196 C 
ATOM     16  O3  UNL     1     -21.609  22.901  43.539  0.00  0.00    -0.287 OA
ENDROOT
BRANCH   4  17
ATOM     17  N3  UNL     1     -20.508  22.390  41.132  0.00  0.00    -0.356 N 
ATOM     18  H14 UNL     1     -20.697  21.641  40.431  0.00  0.00    +0.142 HD
ATOM     19  H15 UNL     1     -21.196  23.172  41.188  0.00  0.00    +0.142 HD
ENDBRANCH   4  17
BRANCH   3  20
ATOM     20  S1  UNL     1     -18.068  21.266  39.657  0.00  0.00    +0.111 S 
ATOM     21  O4  UNL     1     -16.648  20.983  39.252  0.00  0.00    -0.142 OA
ATOM     22  O5  UNL     1     -18.866  19.992  39.651  0.00  0.00    -0.142 OA
BRANCH  20  23
ATOM     23  O6  UNL     1     -18.750  22.335  38.552  0.00  0.00    -0.250 OA
ATOM     24  H16 UNL     1     -18.689  21.873  37.677  0.00  0.00    +0.245 HD
ENDBRANCH  20  23
ENDBRANCH   3  20
BRANCH   1  25
ATOM     25  N2  UNL     1     -15.551  22.701  43.901  0.00  0.00    -0.314 N 
ATOM     26  H8  UNL     1     -15.126  23.638  44.083  0.00  0.00    +0.152 HD
BRANCH  25  30
ATOM     27  C3  UNL     1     -13.132  19.263  44.597  0.00  0.00    +0.036 A 
ATOM     28  C4  UNL     1     -12.549  20.517  44.362  0.00  0.00    +0.025 A 
ATOM     29  C5  UNL     1     -13.351  21.638  44.130  0.00  0.00    +0.025 A 
ATOM     30  C6  UNL     1     -14.750  21.526  44.134  0.00  0.00    +0.031 A 
ATOM     31  C7  UNL     1     -15.334  20.266  44.365  0.00  0.00    +0.025 A 
ATOM     32  C8  UNL     1     -14.531  19.147  44.598  0.00  0.00    +0.025 A 
BRANCH  27  36
ATOM     33  C1  UNL     1     -10.851  16.185  43.957  0.00  0.00    +0.109 C 
ATOM     34  C2  UNL     1     -11.800  17.327  43.741  0.00  0.00    +0.216 C 
ATOM     35  O1  UNL     1     -12.165  17.591  42.563  0.00  0.00    -0.276 OA
ATOM     36  N1  UNL     1     -12.303  18.110  44.847  0.00  0.00    -0.275 N 
ATOM     37  C23 UNL     1     -12.087  17.669  46.229  0.00  0.00    +0.138 C 
ENDBRANCH  27  36
ENDBRANCH  25  30
ENDBRANCH   1  25
TORSDOF 6
ENDMDL
MODEL 4
REMARK minimizedAffinity -7.28946447
REMARK minimizedRMSD -1
REMARK  Name = /home/tchapet/Post-Doc/ARTICLES-DOSSIERS-DES-ARTICLES-EN-REDACTION/NOUVELS-AXES-DE-RECHERCHE-A-REGARDER-URGEMMENT/ARTICLES-EN-REDACTIONS/ARTICLE_MVOTO/Paper2_JCIM/docking_rerun/ligands/17574.pdb
REMARK  8 active torsions:
REMARK  status: ('A' for Active; 'I' for Inactive)
REMARK    1  A    between atoms: C1_1  and  C2_2
REMARK    2  A    between atoms: N1_4  and  C3_5
REMARK    3  A    between atoms: N1_4  and  C23_33
REMARK    4  A    between atoms: C6_8  and  N2_11
REMARK    5  A    between atoms: N2_11  and  C9_12
REMARK    6  A    between atoms: C11_14  and  S1_29
REMARK    7  A    between atoms: C12_15  and  N3_28
REMARK    8  A    between atoms: S1_29  and  O6_32
REMARK                            x       y       z     vdW  Elec       q    Type
REMARK                         _______ _______ _______ _____ _____    ______ ____
ROOT
ATOM      1  C9  UNL     1      -5.987   3.360  27.579  0.00  0.00    +0.045 A 
ATOM      2  C10 UNL     1      -5.420   3.638  28.821  0.00  0.00    +0.055 A 
ATOM      3  C11 UNL     1      -4.085   4.021  28.937  0.00  0.00    +0.140 A 
ATOM      4  C12 UNL     1      -3.271   4.087  27.784  0.00  0.00    +0.064 A 
ATOM      5  C13 UNL     1      -3.822   3.759  26.513  0.00  0.00    +0.057 A 
ATOM      6  C14 UNL     1      -5.209   3.483  26.401  0.00  0.00    +0.056 A 
ATOM      7  C15 UNL     1      -5.824   3.369  25.046  0.00  0.00    +0.196 C 
ATOM      8  O2  UNL     1      -7.078   3.347  24.913  0.00  0.00    -0.287 OA
ATOM      9  C16 UNL     1      -4.974   3.348  23.837  0.00  0.00    +0.033 A 
ATOM     10  C17 UNL     1      -5.548   3.198  22.560  0.00  0.00    +0.012 A 
ATOM     11  C18 UNL     1      -4.742   3.180  21.420  0.00  0.00    +0.001 A 
ATOM     12  C19 UNL     1      -3.359   3.309  21.540  0.00  0.00    +0.001 A 
ATOM     13  C20 UNL     1      -2.777   3.457  22.800  0.00  0.00    +0.012 A 
ATOM     14  C21 UNL     1      -3.579   3.479  23.958  0.00  0.00    +0.033 A 
ATOM     15  C22 UNL     1      -2.965   3.625  25.296  0.00  0.00    +0.196 C 
ATOM     16  O3  UNL     1      -1.711   3.557  25.400  0.00  0.00    -0.287 OA
ENDROOT
BRANCH   4  17
ATOM     17  N3  UNL     1      -1.916   4.548  27.898  0.00  0.00    -0.356 N 
ATOM     18  H14 UNL     1      -1.350   4.379  28.757  0.00  0.00    +0.142 HD
ATOM     19  H15 UNL     1      -1.499   5.167  27.170  0.00  0.00    +0.142 HD
ENDBRANCH   4  17
BRANCH   3  20
ATOM     20  S1  UNL     1      -3.462   4.434  30.542  0.00  0.00    +0.111 S 
ATOM     21  O4  UNL     1      -4.514   4.143  31.576  0.00  0.00    -0.142 OA
ATOM     22  O5  UNL     1      -2.227   3.626  30.826  0.00  0.00    -0.142 OA
BRANCH  20  23
ATOM     23  O6  UNL     1      -3.064   6.068  30.610  0.00  0.00    -0.250 OA
ATOM     24  H16 UNL     1      -2.739   6.214  31.535  0.00  0.00    +0.245 HD
ENDBRANCH  20  23
ENDBRANCH   3  20
BRANCH   1  25
ATOM     25  N2  UNL     1      -7.356   2.929  27.546  0.00  0.00    -0.314 N 
ATOM     26  H8  UNL     1      -7.591   2.128  26.917  0.00  0.00    +0.152 HD
BRANCH  25  30
ATOM     27  C3  UNL     1     -10.525   5.084  29.407  0.00  0.00    +0.036 A 
ATOM     28  C4  UNL     1      -9.745   4.177  30.139  0.00  0.00    +0.025 A 
ATOM     29  C5  UNL     1      -8.711   3.472  29.518  0.00  0.00    +0.025 A 
ATOM     30  C6  UNL     1      -8.434   3.664  28.156  0.00  0.00    +0.031 A 
ATOM     31  C7  UNL     1      -9.221   4.570  27.421  0.00  0.00    +0.025 A 
ATOM     32  C8  UNL     1     -10.254   5.276  28.042  0.00  0.00    +0.025 A 
BRANCH  27  36
ATOM     33  C1  UNL     1     -12.382   7.897  31.337  0.00  0.00    +0.109 C 
ATOM     34  C2  UNL     1     -11.293   7.052  30.746  0.00  0.00    +0.216 C 
ATOM     35  O1  UNL     1     -10.097   7.435  30.876  0.00  0.00    -0.276 OA
ATOM     36  N1  UNL     1     -11.585   5.820  30.051  0.00  0.00    -0.275 N 
ATOM     37  C23 UNL     1     -12.931   5.239  30.102  0.00  0.00    +0.138 C 
ENDBRANCH  27  36
ENDBRANCH  25  30
ENDBRANCH   1  25
TORSDOF 6
ENDMDL
MODEL 5
REMARK minimizedAffinity -7.26102877
REMARK minimizedRMSD -1
REMARK  Name = /home/tchapet/Post-Doc/ARTICLES-DOSSIERS-DES-ARTICLES-EN-REDACTION/NOUVELS-AXES-DE-RECHERCHE-A-REGARDER-URGEMMENT/ARTICLES-EN-REDACTIONS/ARTICLE_MVOTO/Paper2_JCIM/docking_rerun/ligands/17574.pdb
REMARK  8 active torsions:
REMARK  status: ('A' for Active; 'I' for Inactive)
REMARK    1  A    between atoms: C1_1  and  C2_2
REMARK    2  A    between atoms: N1_4  and  C3_5
REMARK    3  A    between atoms: N1_4  and  C23_33
REMARK    4  A    between atoms: C6_8  and  N2_11
REMARK    5  A    between atoms: N2_11  and  C9_12
REMARK    6  A    between atoms: C11_14  and  S1_29
REMARK    7  A    between atoms: C12_15  and  N3_28
REMARK    8  A    between atoms: S1_29  and  O6_32
REMARK                            x       y       z     vdW  Elec       q    Type
REMARK                         _______ _______ _______ _____ _____    ______ ____
ROOT
ATOM      1  C9  UNL     1     -15.471  24.399  44.094  0.00  0.00    +0.045 A 
ATOM      2  C10 UNL     1     -14.542  23.388  44.334  0.00  0.00    +0.055 A 
ATOM      3  C11 UNL     1     -13.793  23.359  45.509  0.00  0.00    +0.140 A 
ATOM      4  C12 UNL     1     -13.938  24.394  46.459  0.00  0.00    +0.064 A 
ATOM      5  C13 UNL     1     -14.847  25.461  46.207  0.00  0.00    +0.057 A 
ATOM      6  C14 UNL     1     -15.681  25.413  45.061  0.00  0.00    +0.056 A 
ATOM      7  C15 UNL     1     -16.788  26.405  44.921  0.00  0.00    +0.196 C 
ATOM      8  O2  UNL     1     -17.675  26.252  44.038  0.00  0.00    -0.287 OA
ATOM      9  C16 UNL     1     -16.897  27.543  45.858  0.00  0.00    +0.033 A 
ATOM     10  C17 UNL     1     -17.914  28.504  45.704  0.00  0.00    +0.012 A 
ATOM     11  C18 UNL     1     -18.014  29.577  46.591  0.00  0.00    +0.001 A 
ATOM     12  C19 UNL     1     -17.103  29.704  47.639  0.00  0.00    +0.001 A 
ATOM     13  C20 UNL     1     -16.089  28.759  47.803  0.00  0.00    +0.012 A 
ATOM     14  C21 UNL     1     -15.979  27.670  46.916  0.00  0.00    +0.033 A 
ATOM     15  C22 UNL     1     -14.899  26.672  47.080  0.00  0.00    +0.196 C 
ATOM     16  O3  UNL     1     -13.982  26.900  47.915  0.00  0.00    -0.287 OA
ENDROOT
BRANCH   4  17
ATOM     17  N3  UNL     1     -13.216  24.325  47.699  0.00  0.00    -0.356 N 
ATOM     18  H14 UNL     1     -12.277  23.876  47.762  0.00  0.00    +0.142 HD
ATOM     19  H15 UNL     1     -13.663  24.619  48.594  0.00  0.00    +0.142 HD
ENDBRANCH   4  17
BRANCH   3  20
ATOM     20  S1  UNL     1     -12.692  21.998  45.774  0.00  0.00    +0.111 S 
ATOM     21  O4  UNL     1     -13.489  20.774  46.135  0.00  0.00    -0.142 OA
ATOM     22  O5  UNL     1     -11.898  21.742  44.524  0.00  0.00    -0.142 OA
BRANCH  20  23
ATOM     23  O6  UNL     1     -11.626  22.347  47.028  0.00  0.00    -0.250 OA
ATOM     24  H16 UNL     1     -11.061  21.537  47.116  0.00  0.00    +0.245 HD
ENDBRANCH  20  23
ENDBRANCH   3  20
BRANCH   1  25
ATOM     25  N2  UNL     1     -16.171  24.385  42.841  0.00  0.00    -0.314 N 
ATOM     26  H8  UNL     1     -16.162  25.264  42.276  0.00  0.00    +0.152 HD
BRANCH  25  30
ATOM     27  C3  UNL     1     -18.748  21.192  41.689  0.00  0.00    +0.036 A 
ATOM     28  C4  UNL     1     -17.905  21.071  42.803  0.00  0.00    +0.025 A 
ATOM     29  C5  UNL     1     -17.060  22.121  43.170  0.00  0.00    +0.025 A 
ATOM     30  C6  UNL     1     -17.046  23.315  42.433  0.00  0.00    +0.031 A 
ATOM     31  C7  UNL     1     -17.888  23.435  41.311  0.00  0.00    +0.025 A 
ATOM     32  C8  UNL     1     -18.733  22.384  40.946  0.00  0.00    +0.025 A 
BRANCH  27  36
ATOM     33  C1  UNL     1     -20.079  17.994  39.933  0.00  0.00    +0.109 C 
ATOM     34  C2  UNL     1     -19.241  19.190  40.274  0.00  0.00    +0.216 C 
ATOM     35  O1  UNL     1     -18.181  19.388  39.617  0.00  0.00    -0.276 OA
ATOM     36  N1  UNL     1     -19.627  20.111  41.318  0.00  0.00    -0.275 N 
ATOM     37  C23 UNL     1     -20.963  20.036  41.919  0.00  0.00    +0.138 C 
ENDBRANCH  27  36
ENDBRANCH  25  30
ENDBRANCH   1  25
TORSDOF 6
ENDMDL
MODEL 6
REMARK minimizedAffinity -7.22522974
REMARK minimizedRMSD -1
REMARK  Name = /home/tchapet/Post-Doc/ARTICLES-DOSSIERS-DES-ARTICLES-EN-REDACTION/NOUVELS-AXES-DE-RECHERCHE-A-REGARDER-URGEMMENT/ARTICLES-EN-REDACTIONS/ARTICLE_MVOTO/Paper2_JCIM/docking_rerun/ligands/17574.pdb
REMARK  8 active torsions:
REMARK  status: ('A' for Active; 'I' for Inactive)
REMARK    1  A    between atoms: C1_1  and  C2_2
REMARK    2  A    between atoms: N1_4  and  C3_5
REMARK    3  A    between atoms: N1_4  and  C23_33
REMARK    4  A    between atoms: C6_8  and  N2_11
REMARK    5  A    between atoms: N2_11  and  C9_12
REMARK    6  A    between atoms: C11_14  and  S1_29
REMARK    7  A    between atoms: C12_15  and  N3_28
REMARK    8  A    between atoms: S1_29  and  O6_32
REMARK                            x       y       z     vdW  Elec       q    Type
REMARK                         _______ _______ _______ _____ _____    ______ ____
ROOT
ATOM      1  C9  UNL     1      -9.837  22.737  11.217  0.00  0.00    +0.045 A 
ATOM      2  C10 UNL     1      -9.492  21.388  11.283  0.00  0.00    +0.055 A 
ATOM      3  C11 UNL     1      -9.183  20.780  12.498  0.00  0.00    +0.140 A 
ATOM      4  C12 UNL     1      -9.171  21.547  13.684  0.00  0.00    +0.064 A 
ATOM      5  C13 UNL     1      -9.473  22.938  13.627  0.00  0.00    +0.057 A 
ATOM      6  C14 UNL     1      -9.896  23.513  12.401  0.00  0.00    +0.056 A 
ATOM      7  C15 UNL     1     -10.431  24.906  12.394  0.00  0.00    +0.196 C 
ATOM      8  O2  UNL     1     -11.016  25.360  11.373  0.00  0.00    -0.287 OA
ATOM      9  C16 UNL     1     -10.344  25.749  13.605  0.00  0.00    +0.033 A 
ATOM     10  C17 UNL     1     -10.809  27.077  13.589  0.00  0.00    +0.012 A 
ATOM     11  C18 UNL     1     -10.726  27.870  14.735  0.00  0.00    +0.001 A 
ATOM     12  C19 UNL     1     -10.178  27.349  15.906  0.00  0.00    +0.001 A 
ATOM     13  C20 UNL     1      -9.711  26.033  15.935  0.00  0.00    +0.012 A 
ATOM     14  C21 UNL     1      -9.792  25.222  14.786  0.00  0.00    +0.033 A 
ATOM     15  C22 UNL     1      -9.288  23.831  14.810  0.00  0.00    +0.196 C 
ATOM     16  O3  UNL     1      -8.634  23.439  15.814  0.00  0.00    -0.287 OA
ENDROOT
BRANCH   4  17
ATOM     17  N3  UNL     1      -8.920  20.904  14.943  0.00  0.00    -0.356 N 
ATOM     18  H14 UNL     1      -8.295  20.073  15.018  0.00  0.00    +0.142 HD
ATOM     19  H15 UNL     1      -9.449  21.179  15.798  0.00  0.00    +0.142 HD
ENDBRANCH   4  17
BRANCH   3  20
ATOM     20  S1  UNL     1      -8.834  19.044  12.508  0.00  0.00    +0.111 S 
ATOM     21  O4  UNL     1      -8.982  18.497  11.115  0.00  0.00    -0.142 OA
ATOM     22  O5  UNL     1      -7.433  18.816  13.002  0.00  0.00    -0.142 OA
BRANCH  20  23
ATOM     23  O6  UNL     1      -9.903  18.241  13.529  0.00  0.00    -0.250 OA
ATOM     24  H16 UNL     1      -9.647  17.285  13.466  0.00  0.00    +0.245 HD
ENDBRANCH  20  23
ENDBRANCH   3  20
BRANCH   1  25
ATOM     25  N2  UNL     1     -10.098  23.301   9.923  0.00  0.00    -0.314 N 
ATOM     26  H8  UNL     1      -9.389  23.965   9.537  0.00  0.00    +0.152 HD
BRANCH  25  30
ATOM     27  C3  UNL     1     -13.803  22.925   7.852  0.00  0.00    +0.036 A 
ATOM     28  C4  UNL     1     -12.650  23.370   7.189  0.00  0.00    +0.025 A 
ATOM     29  C5  UNL     1     -11.441  23.494   7.878  0.00  0.00    +0.025 A 
ATOM     30  C6  UNL     1     -11.361  23.172   9.241  0.00  0.00    +0.031 A 
ATOM     31  C7  UNL     1     -12.520  22.731   9.907  0.00  0.00    +0.025 A 
ATOM     32  C8  UNL     1     -13.728  22.605   9.217  0.00  0.00    +0.025 A 
BRANCH  27  36
ATOM     33  C1  UNL     1     -17.175  23.846   6.159  0.00  0.00    +0.109 C 
ATOM     34  C2  UNL     1     -15.925  23.925   6.985  0.00  0.00    +0.216 C 
ATOM     35  O1  UNL     1     -15.653  25.014   7.561  0.00  0.00    -0.276 OA
ATOM     36  N1  UNL     1     -15.048  22.787   7.137  0.00  0.00    -0.275 N 
ATOM     37  C23 UNL     1     -15.469  21.457   6.683  0.00  0.00    +0.138 C 
ENDBRANCH  27  36
ENDBRANCH  25  30
ENDBRANCH   1  25
TORSDOF 6
ENDMDL
MODEL 7
REMARK minimizedAffinity -7.17065001
REMARK minimizedRMSD -1
REMARK  Name = /home/tchapet/Post-Doc/ARTICLES-DOSSIERS-DES-ARTICLES-EN-REDACTION/NOUVELS-AXES-DE-RECHERCHE-A-REGARDER-URGEMMENT/ARTICLES-EN-REDACTIONS/ARTICLE_MVOTO/Paper2_JCIM/docking_rerun/ligands/17574.pdb
REMARK  8 active torsions:
REMARK  status: ('A' for Active; 'I' for Inactive)
REMARK    1  A    between atoms: C1_1  and  C2_2
REMARK    2  A    between atoms: N1_4  and  C3_5
REMARK    3  A    between atoms: N1_4  and  C23_33
REMARK    4  A    between atoms: C6_8  and  N2_11
REMARK    5  A    between atoms: N2_11  and  C9_12
REMARK    6  A    between atoms: C11_14  and  S1_29
REMARK    7  A    between atoms: C12_15  and  N3_28
REMARK    8  A    between atoms: S1_29  and  O6_32
REMARK                            x       y       z     vdW  Elec       q    Type
REMARK                         _______ _______ _______ _____ _____    ______ ____
ROOT
ATOM      1  C9  UNL     1     -27.369  20.988  33.274  0.00  0.00    +0.045 A 
ATOM      2  C10 UNL     1     -26.654  21.822  34.131  0.00  0.00    +0.055 A 
ATOM      3  C11 UNL     1     -26.283  23.108  33.744  0.00  0.00    +0.140 A 
ATOM      4  C12 UNL     1     -26.592  23.567  32.444  0.00  0.00    +0.064 A 
ATOM      5  C13 UNL     1     -27.278  22.709  31.538  0.00  0.00    +0.057 A 
ATOM      6  C14 UNL     1     -27.747  21.448  31.988  0.00  0.00    +0.056 A 
ATOM      7  C15 UNL     1     -28.662  20.655  31.115  0.00  0.00    +0.196 C 
ATOM      8  O2  UNL     1     -29.268  19.648  31.572  0.00  0.00    -0.287 OA
ATOM      9  C16 UNL     1     -28.923  21.078  29.723  0.00  0.00    +0.033 A 
ATOM     10  C17 UNL     1     -29.751  20.310  28.883  0.00  0.00    +0.012 A 
ATOM     11  C18 UNL     1     -29.996  20.713  27.570  0.00  0.00    +0.001 A 
ATOM     12  C19 UNL     1     -29.418  21.883  27.079  0.00  0.00    +0.001 A 
ATOM     13  C20 UNL     1     -28.593  22.654  27.901  0.00  0.00    +0.012 A 
ATOM     14  C21 UNL     1     -28.341  22.259  29.229  0.00  0.00    +0.033 A 
ATOM     15  C22 UNL     1     -27.459  23.068  30.100  0.00  0.00    +0.196 C 
ATOM     16  O3  UNL     1     -26.804  24.016  29.588  0.00  0.00    -0.287 OA
ENDROOT
BRANCH   4  17
ATOM     17  N3  UNL     1     -26.268  24.915  32.072  0.00  0.00    -0.356 N 
ATOM     18  H14 UNL     1     -25.437  25.408  32.464  0.00  0.00    +0.142 HD
ATOM     19  H15 UNL     1     -26.923  25.480  31.489  0.00  0.00    +0.142 HD
ENDBRANCH   4  17
BRANCH   3  20
ATOM     20  S1  UNL     1     -25.446  24.135  34.920  0.00  0.00    +0.111 S 
ATOM     21  O4  UNL     1     -25.929  25.551  34.779  0.00  0.00    -0.142 OA
ATOM     22  O5  UNL     1     -25.722  23.634  36.310  0.00  0.00    -0.142 OA
BRANCH  20  23
ATOM     23  O6  UNL     1     -23.785  24.093  34.651  0.00  0.00    -0.250 OA
ATOM     24  H16 UNL     1     -23.401  24.696  35.337  0.00  0.00    +0.245 HD
ENDBRANCH  20  23
ENDBRANCH   3  20
BRANCH   1  25
ATOM     25  N2  UNL     1     -27.676  19.661  33.729  0.00  0.00    -0.314 N 
ATOM     26  H8  UNL     1     -28.657  19.474  34.035  0.00  0.00    +0.152 HD
BRANCH  25  30
ATOM     27  C3  UNL     1     -24.679  16.714  34.432  0.00  0.00    +0.036 A 
ATOM     28  C4  UNL     1     -24.678  17.475  33.254  0.00  0.00    +0.025 A 
ATOM     29  C5  UNL     1     -25.668  18.436  33.030  0.00  0.00    +0.025 A 
ATOM     30  C6  UNL     1     -26.673  18.657  33.983  0.00  0.00    +0.031 A 
ATOM     31  C7  UNL     1     -26.678  17.890  35.163  0.00  0.00    +0.025 A 
ATOM     32  C8  UNL     1     -25.687  16.930  35.386  0.00  0.00    +0.025 A 
BRANCH  27  36
ATOM     33  C1  UNL     1     -21.430  15.062  35.774  0.00  0.00    +0.109 C 
ATOM     34  C2  UNL     1     -22.470  16.084  35.421  0.00  0.00    +0.216 C 
ATOM     35  O1  UNL     1     -22.290  17.277  35.791  0.00  0.00    -0.276 OA
ATOM     36  N1  UNL     1     -23.650  15.731  34.666  0.00  0.00    -0.275 N 
ATOM     37  C23 UNL     1     -23.757  14.417  34.022  0.00  0.00    +0.138 C 
ENDBRANCH  27  36
ENDBRANCH  25  30
ENDBRANCH   1  25
TORSDOF 6
ENDMDL
MODEL 8
REMARK minimizedAffinity -7.15567827
REMARK minimizedRMSD -1
REMARK  Name = /home/tchapet/Post-Doc/ARTICLES-DOSSIERS-DES-ARTICLES-EN-REDACTION/NOUVELS-AXES-DE-RECHERCHE-A-REGARDER-URGEMMENT/ARTICLES-EN-REDACTIONS/ARTICLE_MVOTO/Paper2_JCIM/docking_rerun/ligands/17574.pdb
REMARK  8 active torsions:
REMARK  status: ('A' for Active; 'I' for Inactive)
REMARK    1  A    between atoms: C1_1  and  C2_2
REMARK    2  A    between atoms: N1_4  and  C3_5
REMARK    3  A    between atoms: N1_4  and  C23_33
REMARK    4  A    between atoms: C6_8  and  N2_11
REMARK    5  A    between atoms: N2_11  and  C9_12
REMARK    6  A    between atoms: C11_14  and  S1_29
REMARK    7  A    between atoms: C12_15  and  N3_28
REMARK    8  A    between atoms: S1_29  and  O6_32
REMARK                            x       y       z     vdW  Elec       q    Type
REMARK                         _______ _______ _______ _____ _____    ______ ____
ROOT
ATOM      1  C9  UNL     1     -16.101  19.655  41.528  0.00  0.00    +0.045 A 
ATOM      2  C10 UNL     1     -14.982  19.947  42.306  0.00  0.00    +0.055 A 
ATOM      3  C11 UNL     1     -13.925  19.046  42.417  0.00  0.00    +0.140 A 
ATOM      4  C12 UNL     1     -14.000  17.793  41.770  0.00  0.00    +0.064 A 
ATOM      5  C13 UNL     1     -15.157  17.459  41.011  0.00  0.00    +0.057 A 
ATOM      6  C14 UNL     1     -16.171  18.432  40.816  0.00  0.00    +0.056 A 
ATOM      7  C15 UNL     1     -17.264  18.162  39.836  0.00  0.00    +0.196 C 
ATOM      8  O2  UNL     1     -18.044  19.086  39.479  0.00  0.00    -0.287 OA
ATOM      9  C16 UNL     1     -17.405  16.827  39.219  0.00  0.00    +0.033 A 
ATOM     10  C17 UNL     1     -18.460  16.556  38.327  0.00  0.00    +0.012 A 
ATOM     11  C18 UNL     1     -18.589  15.294  37.746  0.00  0.00    +0.001 A 
ATOM     12  C19 UNL     1     -17.671  14.289  38.048  0.00  0.00    +0.001 A 
ATOM     13  C20 UNL     1     -16.620  14.543  38.932  0.00  0.00    +0.012 A 
ATOM     14  C21 UNL     1     -16.478  15.813  39.523  0.00  0.00    +0.033 A 
ATOM     15  C22 UNL     1     -15.373  16.084  40.469  0.00  0.00    +0.196 C 
ATOM     16  O3  UNL     1     -14.666  15.119  40.869  0.00  0.00    -0.287 OA
ENDROOT
BRANCH   4  17
ATOM     17  N3  UNL     1     -12.880  16.895  41.830  0.00  0.00    -0.356 N 
ATOM     18  H14 UNL     1     -12.249  16.860  42.659  0.00  0.00    +0.142 HD
ATOM     19  H15 UNL     1     -12.598  16.336  40.996  0.00  0.00    +0.142 HD
ENDBRANCH   4  17
BRANCH   3  20
ATOM     20  S1  UNL     1     -12.504  19.524  43.360  0.00  0.00    +0.111 S 
ATOM     21  O4  UNL     1     -12.337  18.585  44.521  0.00  0.00    -0.142 OA
ATOM     22  O5  UNL     1     -11.283  19.482  42.486  0.00  0.00    -0.142 OA
BRANCH  20  23
ATOM     23  O6  UNL     1     -12.694  21.090  43.945  0.00  0.00    -0.250 OA
ATOM     24  H16 UNL     1     -11.870  21.271  44.464  0.00  0.00    +0.245 HD
ENDBRANCH  20  23
ENDBRANCH   3  20
BRANCH   1  25
ATOM     25  N2  UNL     1     -17.168  20.615  41.499  0.00  0.00    -0.314 N 
ATOM     26  H8  UNL     1     -17.837  20.565  40.698  0.00  0.00    +0.152 HD
BRANCH  25  30
ATOM     27  C3  UNL     1     -17.370  24.018  44.055  0.00  0.00    +0.036 A 
ATOM     28  C4  UNL     1     -17.128  24.164  42.681  0.00  0.00    +0.025 A 
ATOM     29  C5  UNL     1     -17.059  23.041  41.852  0.00  0.00    +0.025 A 
ATOM     30  C6  UNL     1     -17.236  21.753  42.380  0.00  0.00    +0.031 A 
ATOM     31  C7  UNL     1     -17.473  21.607  43.760  0.00  0.00    +0.025 A 
ATOM     32  C8  UNL     1     -17.543  22.731  44.588  0.00  0.00    +0.025 A 
BRANCH  27  36
ATOM     33  C1  UNL     1     -16.293  27.116  46.135  0.00  0.00    +0.109 C 
ATOM     34  C2  UNL     1     -16.245  25.848  45.337  0.00  0.00    +0.216 C 
ATOM     35  O1  UNL     1     -15.116  25.361  45.049  0.00  0.00    -0.276 OA
ATOM     36  N1  UNL     1     -17.451  25.179  44.908  0.00  0.00    -0.275 N 
ATOM     37  C23 UNL     1     -18.757  25.589  45.435  0.00  0.00    +0.138 C 
ENDBRANCH  27  36
ENDBRANCH  25  30
ENDBRANCH   1  25
TORSDOF 6
ENDMDL
MODEL 9
REMARK minimizedAffinity -7.13132858
REMARK minimizedRMSD -1
REMARK  Name = /home/tchapet/Post-Doc/ARTICLES-DOSSIERS-DES-ARTICLES-EN-REDACTION/NOUVELS-AXES-DE-RECHERCHE-A-REGARDER-URGEMMENT/ARTICLES-EN-REDACTIONS/ARTICLE_MVOTO/Paper2_JCIM/docking_rerun/ligands/17574.pdb
REMARK  8 active torsions:
REMARK  status: ('A' for Active; 'I' for Inactive)
REMARK    1  A    between atoms: C1_1  and  C2_2
REMARK    2  A    between atoms: N1_4  and  C3_5
REMARK    3  A    between atoms: N1_4  and  C23_33
REMARK    4  A    between atoms: C6_8  and  N2_11
REMARK    5  A    between atoms: N2_11  and  C9_12
REMARK    6  A    between atoms: C11_14  and  S1_29
REMARK    7  A    between atoms: C12_15  and  N3_28
REMARK    8  A    between atoms: S1_29  and  O6_32
REMARK                            x       y       z     vdW  Elec       q    Type
REMARK                         _______ _______ _______ _____ _____    ______ ____
ROOT
ATOM      1  C9  UNL     1     -27.245  12.241   7.110  0.00  0.00    +0.045 A 
ATOM      2  C10 UNL     1     -28.019  12.862   8.089  0.00  0.00    +0.055 A 
ATOM      3  C11 UNL     1     -27.561  13.994   8.761  0.00  0.00    +0.140 A 
ATOM      4  C12 UNL     1     -26.272  14.500   8.485  0.00  0.00    +0.064 A 
ATOM      5  C13 UNL     1     -25.449  13.848   7.523  0.00  0.00    +0.057 A 
ATOM      6  C14 UNL     1     -25.975  12.769   6.769  0.00  0.00    +0.056 A 
ATOM      7  C15 UNL     1     -25.198  12.242   5.608  0.00  0.00    +0.196 C 
ATOM      8  O2  UNL     1     -25.733  11.443   4.791  0.00  0.00    -0.287 OA
ATOM      9  C16 UNL     1     -23.815  12.700   5.361  0.00  0.00    +0.033 A 
ATOM     10  C17 UNL     1     -23.065  12.173   4.293  0.00  0.00    +0.012 A 
ATOM     11  C18 UNL     1     -21.759  12.610   4.063  0.00  0.00    +0.001 A 
ATOM     12  C19 UNL     1     -21.187  13.572   4.894  0.00  0.00    +0.001 A 
ATOM     13  C20 UNL     1     -21.920  14.102   5.958  0.00  0.00    +0.012 A 
ATOM     14  C21 UNL     1     -23.239  13.672   6.199  0.00  0.00    +0.033 A 
ATOM     15  C22 UNL     1     -24.015  14.223   7.333  0.00  0.00    +0.196 C 
ATOM     16  O3  UNL     1     -23.425  14.950   8.176  0.00  0.00    -0.287 OA
ENDROOT
BRANCH   4  17
ATOM     17  N3  UNL     1     -25.830  15.705   9.129  0.00  0.00    -0.356 N 
ATOM     18  H14 UNL     1     -26.144  15.959  10.091  0.00  0.00    +0.142 HD
ATOM     19  H15 UNL     1     -25.276  16.418   8.607  0.00  0.00    +0.142 HD
ENDBRANCH   4  17
BRANCH   3  20
ATOM     20  S1  UNL     1     -28.636  14.771   9.933  0.00  0.00    +0.111 S 
ATOM     21  O4  UNL     1     -29.958  14.054   9.951  0.00  0.00    -0.142 OA
ATOM     22  O5  UNL     1     -28.010  14.724  11.299  0.00  0.00    -0.142 OA
BRANCH  20  23
ATOM     23  O6  UNL     1     -28.891  16.380   9.513  0.00  0.00    -0.250 OA
ATOM     24  H16 UNL     1     -29.506  16.731  10.206  0.00  0.00    +0.245 HD
ENDBRANCH  20  23
ENDBRANCH   3  20
BRANCH   1  25
ATOM     25  N2  UNL     1     -27.767  11.054   6.494  0.00  0.00    -0.314 N 
ATOM     26  H8  UNL     1     -28.354  11.176   5.638  0.00  0.00    +0.152 HD
BRANCH  25  30
ATOM     27  C3  UNL     1     -27.645   7.195   8.297  0.00  0.00    +0.036 A 
ATOM     28  C4  UNL     1     -28.850   7.905   8.197  0.00  0.00    +0.025 A 
ATOM     29  C5  UNL     1     -28.879   9.172   7.608  0.00  0.00    +0.025 A 
ATOM     30  C6  UNL     1     -27.705   9.750   7.104  0.00  0.00    +0.031 A 
ATOM     31  C7  UNL     1     -26.494   9.040   7.209  0.00  0.00    +0.025 A 
ATOM     32  C8  UNL     1     -26.466   7.773   7.797  0.00  0.00    +0.025 A 
BRANCH  27  36
ATOM     33  C1  UNL     1     -27.424   4.401  10.986  0.00  0.00    +0.109 C 
ATOM     34  C2  UNL     1     -27.356   5.738  10.309  0.00  0.00    +0.216 C 
ATOM     35  O1  UNL     1     -27.051   6.748  11.002  0.00  0.00    -0.276 OA
ATOM     36  N1  UNL     1     -27.618   5.883   8.896  0.00  0.00    -0.275 N 
ATOM     37  C23 UNL     1     -27.731   4.702   8.034  0.00  0.00    +0.138 C 
ENDBRANCH  27  36
ENDBRANCH  25  30
ENDBRANCH   1  25
TORSDOF 6
ENDMDL
