MODEL 1
REMARK minimizedAffinity -6.6867094
REMARK minimizedRMSD -1
REMARK  Name = /home/tchapet/Post-Doc/ARTICLES-DOSSIERS-DES-ARTICLES-EN-REDACTION/NOUVELS-AXES-DE-RECHERCHE-A-REGARDER-URGEMMENT/ARTICLES-EN-REDACTIONS/ARTICLE_MVOTO/Paper2_JCIM/docking_rerun/ligands/18506.pdb
REMARK  6 active torsions:
REMARK  status: ('A' for Active; 'I' for Inactive)
REMARK    1  A    between atoms: C1_1  and  C2_2
REMARK    2  A    between atoms: C2_2  and  C3_3
REMARK    3  A    between atoms: C3_3  and  C4_4
REMARK    4  A    between atoms: C4_4  and  N1_5
REMARK    5  A    between atoms: C9_12  and  N2_13
REMARK    6  A    between atoms: C12_16  and  N3_17
REMARK                            x       y       z     vdW  Elec       q    Type
REMARK                         _______ _______ _______ _____ _____    ______ ____
ROOT
ATOM      1  N1  UNL     1      18.356   6.824  14.148  0.00  0.00    -0.275 N 
ATOM      2  C5  UNL     1      18.058   7.523  13.030  0.00  0.00    +0.264 A 
ATOM      3  O1  UNL     1      18.451   8.701  12.819  0.00  0.00    -0.267 OA
ATOM      4  C6  UNL     1      17.299   6.749  12.161  0.00  0.00    +0.075 A 
ATOM      5  C7  UNL     1      17.141   5.528  12.764  0.00  0.00    +0.075 A 
ATOM      6  C8  UNL     1      17.808   5.600  13.979  0.00  0.00    +0.264 A 
ATOM      7  O2  UNL     1      17.924   4.664  14.815  0.00  0.00    -0.267 OA
ATOM      8  C9  UNL     1      16.497   4.464  12.128  0.00  0.00    +0.050 A 
ATOM      9  C10 UNL     1      15.929   4.691  10.831  0.00  0.00    +0.056 A 
ATOM     10  C11 UNL     1      16.097   5.976  10.196  0.00  0.00    +0.056 A 
ATOM     11  C12 UNL     1      16.829   7.008  10.871  0.00  0.00    +0.050 A 
ATOM     12  C13 UNL     1      15.491   6.203   8.930  0.00  0.00    +0.196 A 
ATOM     13  O3  UNL     1      15.540   7.342   8.389  0.00  0.00    -0.287 OA
ATOM     14  C14 UNL     1      14.797   5.175   8.266  0.00  0.00    +0.033 A 
ATOM     15  C15 UNL     1      14.633   3.918   8.887  0.00  0.00    +0.033 A 
ATOM     16  C16 UNL     1      15.163   3.692  10.170  0.00  0.00    +0.196 A 
ATOM     17  O4  UNL     1      14.920   2.591  10.737  0.00  0.00    -0.287 OA
ATOM     18  C17 UNL     1      13.915   2.905   8.214  0.00  0.00    +0.012 A 
ATOM     19  C18 UNL     1      13.376   3.135   6.948  0.00  0.00    +0.001 A 
ATOM     20  C19 UNL     1      13.538   4.375   6.336  0.00  0.00    +0.001 A 
ATOM     21  C20 UNL     1      14.240   5.390   6.986  0.00  0.00    +0.012 A 
ENDROOT
BRANCH   8  22
ATOM     22  N2  UNL     1      16.472   3.179  12.766  0.00  0.00    -0.357 N 
ATOM     23  H10 UNL     1      16.333   3.093  13.795  0.00  0.00    +0.142 HD
ATOM     24  H11 UNL     1      16.745   2.318  12.241  0.00  0.00    +0.142 HD
ENDBRANCH   8  22
BRANCH  11  25
ATOM     25  N3  UNL     1      17.136   8.266  10.253  0.00  0.00    -0.357 N 
ATOM     26  H12 UNL     1      17.123   9.152  10.802  0.00  0.00    +0.142 HD
ATOM     27  H13 UNL     1      17.526   8.303   9.285  0.00  0.00    +0.142 HD
ENDBRANCH  11  25
BRANCH   1  28
ATOM     28  C4  UNL     1      19.182   7.268  15.274  0.00  0.00    +0.128 C 
BRANCH  28  29
ATOM     29  C3  UNL     1      18.324   7.577  16.508  0.00  0.00    +0.021 C 
BRANCH  29  31
ATOM     30  C1  UNL     1      16.021   8.549  16.154  0.00  0.00    +0.004 C 
ATOM     31  C2  UNL     1      17.503   8.863  16.336  0.00  0.00    -0.002 C 
ENDBRANCH  29  31
ENDBRANCH  28  29
ENDBRANCH   1  28
TORSDOF 5
ENDMDL
MODEL 2
REMARK minimizedAffinity -6.54737806
REMARK minimizedRMSD -1
REMARK  Name = /home/tchapet/Post-Doc/ARTICLES-DOSSIERS-DES-ARTICLES-EN-REDACTION/NOUVELS-AXES-DE-RECHERCHE-A-REGARDER-URGEMMENT/ARTICLES-EN-REDACTIONS/ARTICLE_MVOTO/Paper2_JCIM/docking_rerun/ligands/18506.pdb
REMARK  6 active torsions:
REMARK  status: ('A' for Active; 'I' for Inactive)
REMARK    1  A    between atoms: C1_1  and  C2_2
REMARK    2  A    between atoms: C2_2  and  C3_3
REMARK    3  A    between atoms: C3_3  and  C4_4
REMARK    4  A    between atoms: C4_4  and  N1_5
REMARK    5  A    between atoms: C9_12  and  N2_13
REMARK    6  A    between atoms: C12_16  and  N3_17
REMARK                            x       y       z     vdW  Elec       q    Type
REMARK                         _______ _______ _______ _____ _____    ______ ____
ROOT
ATOM      1  N1  UNL     1     -19.111 -30.861  11.297  0.00  0.00    -0.275 N 
ATOM      2  C5  UNL     1     -18.367 -31.388  10.300  0.00  0.00    +0.264 A 
ATOM      3  O1  UNL     1     -17.256 -31.954  10.483  0.00  0.00    -0.267 OA
ATOM      4  C6  UNL     1     -19.015 -31.243   9.080  0.00  0.00    +0.075 A 
ATOM      5  C7  UNL     1     -20.205 -30.616   9.344  0.00  0.00    +0.075 A 
ATOM      6  C8  UNL     1     -20.241 -30.402  10.715  0.00  0.00    +0.264 A 
ATOM      7  O2  UNL     1     -21.192 -29.879  11.356  0.00  0.00    -0.267 OA
ATOM      8  C9  UNL     1     -21.160 -30.386   8.350  0.00  0.00    +0.050 A 
ATOM      9  C10 UNL     1     -20.841 -30.761   7.003  0.00  0.00    +0.056 A 
ATOM     10  C11 UNL     1     -19.588 -31.421   6.726  0.00  0.00    +0.056 A 
ATOM     11  C12 UNL     1     -18.679 -31.693   7.800  0.00  0.00    +0.050 A 
ATOM     12  C13 UNL     1     -19.265 -31.747   5.379  0.00  0.00    +0.196 A 
ATOM     13  O3  UNL     1     -18.140 -32.241   5.091  0.00  0.00    -0.287 OA
ATOM     14  C14 UNL     1     -20.176 -31.499   4.337  0.00  0.00    +0.033 A 
ATOM     15  C15 UNL     1     -21.402 -30.854   4.608  0.00  0.00    +0.033 A 
ATOM     16  C16 UNL     1     -21.713 -30.457   5.921  0.00  0.00    +0.196 A 
ATOM     17  O4  UNL     1     -22.773 -29.800   6.117  0.00  0.00    -0.287 OA
ATOM     18  C17 UNL     1     -22.295 -30.593   3.545  0.00  0.00    +0.012 A 
ATOM     19  C18 UNL     1     -21.978 -30.972   2.240  0.00  0.00    +0.001 A 
ATOM     20  C19 UNL     1     -20.768 -31.609   1.973  0.00  0.00    +0.001 A 
ATOM     21  C20 UNL     1     -19.872 -31.871   3.008  0.00  0.00    +0.012 A 
ENDROOT
BRANCH   8  22
ATOM     22  N2  UNL     1     -22.433 -29.836   8.716  0.00  0.00    -0.357 N 
ATOM     23  H10 UNL     1     -22.508 -29.088   9.437  0.00  0.00    +0.142 HD
ATOM     24  H11 UNL     1     -23.320 -30.277   8.384  0.00  0.00    +0.142 HD
ENDBRANCH   8  22
BRANCH  11  25
ATOM     25  N3  UNL     1     -17.474 -32.449   7.618  0.00  0.00    -0.357 N 
ATOM     26  H12 UNL     1     -16.600 -32.199   8.129  0.00  0.00    +0.142 HD
ATOM     27  H13 UNL     1     -17.485 -33.352   7.092  0.00  0.00    +0.142 HD
ENDBRANCH  11  25
BRANCH   1  28
ATOM     28  C4  UNL     1     -18.801 -30.866  12.729  0.00  0.00    +0.128 C 
BRANCH  28  29
ATOM     29  C3  UNL     1     -17.973 -29.636  13.125  0.00  0.00    +0.021 C 
BRANCH  29  31
ATOM     30  C1  UNL     1     -15.449 -29.636  13.115  0.00  0.00    +0.004 C 
ATOM     31  C2  UNL     1     -16.703 -30.016  13.897  0.00  0.00    -0.002 C 
ENDBRANCH  29  31
ENDBRANCH  28  29
ENDBRANCH   1  28
TORSDOF 5
ENDMDL
MODEL 3
REMARK minimizedAffinity -6.48399115
REMARK minimizedRMSD -1
REMARK  Name = /home/tchapet/Post-Doc/ARTICLES-DOSSIERS-DES-ARTICLES-EN-REDACTION/NOUVELS-AXES-DE-RECHERCHE-A-REGARDER-URGEMMENT/ARTICLES-EN-REDACTIONS/ARTICLE_MVOTO/Paper2_JCIM/docking_rerun/ligands/18506.pdb
REMARK  6 active torsions:
REMARK  status: ('A' for Active; 'I' for Inactive)
REMARK    1  A    between atoms: C1_1  and  C2_2
REMARK    2  A    between atoms: C2_2  and  C3_3
REMARK    3  A    between atoms: C3_3  and  C4_4
REMARK    4  A    between atoms: C4_4  and  N1_5
REMARK    5  A    between atoms: C9_12  and  N2_13
REMARK    6  A    between atoms: C12_16  and  N3_17
REMARK                            x       y       z     vdW  Elec       q    Type
REMARK                         _______ _______ _______ _____ _____    ______ ____
ROOT
ATOM      1  N1  UNL     1      -1.257 -10.193   6.626  0.00  0.00    -0.275 N 
ATOM      2  C5  UNL     1      -0.571  -9.062   6.902  0.00  0.00    +0.264 A 
ATOM      3  O1  UNL     1      -0.245  -8.711   8.067  0.00  0.00    -0.267 OA
ATOM      4  C6  UNL     1      -0.261  -8.383   5.730  0.00  0.00    +0.075 A 
ATOM      5  C7  UNL     1      -0.764  -9.135   4.700  0.00  0.00    +0.075 A 
ATOM      6  C8  UNL     1      -1.363 -10.246   5.279  0.00  0.00    +0.264 A 
ATOM      7  O2  UNL     1      -1.912 -11.196   4.660  0.00  0.00    -0.267 OA
ATOM      8  C9  UNL     1      -0.558  -8.793   3.361  0.00  0.00    +0.050 A 
ATOM      9  C10 UNL     1       0.145  -7.577   3.072  0.00  0.00    +0.056 A 
ATOM     10  C11 UNL     1       0.676  -6.787   4.156  0.00  0.00    +0.056 A 
ATOM     11  C12 UNL     1       0.492  -7.227   5.508  0.00  0.00    +0.050 A 
ATOM     12  C13 UNL     1       1.332  -5.561   3.857  0.00  0.00    +0.196 A 
ATOM     13  O3  UNL     1       1.727  -4.801   4.785  0.00  0.00    -0.287 OA
ATOM     14  C14 UNL     1       1.530  -5.153   2.526  0.00  0.00    +0.033 A 
ATOM     15  C15 UNL     1       1.011  -5.926   1.466  0.00  0.00    +0.033 A 
ATOM     16  C16 UNL     1       0.296  -7.106   1.738  0.00  0.00    +0.196 A 
ATOM     17  O4  UNL     1      -0.235  -7.725   0.775  0.00  0.00    -0.287 OA
ATOM     18  C17 UNL     1       1.200  -5.488   0.135  0.00  0.00    +0.012 A 
ATOM     19  C18 UNL     1       1.896  -4.309  -0.134  0.00  0.00    +0.001 A 
ATOM     20  C19 UNL     1       2.407  -3.546   0.913  0.00  0.00    +0.001 A 
ATOM     21  C20 UNL     1       2.226  -3.959   2.233  0.00  0.00    +0.012 A 
ENDROOT
BRANCH   8  22
ATOM     22  N2  UNL     1      -1.007  -9.687   2.333  0.00  0.00    -0.357 N 
ATOM     23  H10 UNL     1      -1.916 -10.191   2.418  0.00  0.00    +0.142 HD
ATOM     24  H11 UNL     1      -0.369  -9.970   1.557  0.00  0.00    +0.142 HD
ENDBRANCH   8  22
BRANCH  11  25
ATOM     25  N3  UNL     1       1.091  -6.557   6.626  0.00  0.00    -0.357 N 
ATOM     26  H12 UNL     1       0.583  -6.462   7.531  0.00  0.00    +0.142 HD
ATOM     27  H13 UNL     1       2.100  -6.287   6.607  0.00  0.00    +0.142 HD
ENDBRANCH  11  25
BRANCH   1  28
ATOM     28  C4  UNL     1      -1.714 -11.205   7.582  0.00  0.00    +0.128 C 
BRANCH  28  29
ATOM     29  C3  UNL     1      -0.689 -12.338   7.728  0.00  0.00    +0.021 C 
BRANCH  29  31
ATOM     30  C1  UNL     1      -1.507 -14.427   6.572  0.00  0.00    +0.004 C 
ATOM     31  C2  UNL     1      -1.358 -13.707   7.908  0.00  0.00    -0.002 C 
ENDBRANCH  29  31
ENDBRANCH  28  29
ENDBRANCH   1  28
TORSDOF 5
ENDMDL
MODEL 4
REMARK minimizedAffinity -6.43668032
REMARK minimizedRMSD -1
REMARK  Name = /home/tchapet/Post-Doc/ARTICLES-DOSSIERS-DES-ARTICLES-EN-REDACTION/NOUVELS-AXES-DE-RECHERCHE-A-REGARDER-URGEMMENT/ARTICLES-EN-REDACTIONS/ARTICLE_MVOTO/Paper2_JCIM/docking_rerun/ligands/18506.pdb
REMARK  6 active torsions:
REMARK  status: ('A' for Active; 'I' for Inactive)
REMARK    1  A    between atoms: C1_1  and  C2_2
REMARK    2  A    between atoms: C2_2  and  C3_3
REMARK    3  A    between atoms: C3_3  and  C4_4
REMARK    4  A    between atoms: C4_4  and  N1_5
REMARK    5  A    between atoms: C9_12  and  N2_13
REMARK    6  A    between atoms: C12_16  and  N3_17
REMARK                            x       y       z     vdW  Elec       q    Type
REMARK                         _______ _______ _______ _____ _____    ______ ____
ROOT
ATOM      1  N1  UNL     1      18.757   6.569  14.073  0.00  0.00    -0.275 N 
ATOM      2  C5  UNL     1      18.159   5.369  13.903  0.00  0.00    +0.264 A 
ATOM      3  O1  UNL     1      18.204   4.440  14.753  0.00  0.00    -0.267 OA
ATOM      4  C6  UNL     1      17.478   5.332  12.692  0.00  0.00    +0.075 A 
ATOM      5  C7  UNL     1      17.656   6.560  12.109  0.00  0.00    +0.075 A 
ATOM      6  C8  UNL     1      18.438   7.302  12.984  0.00  0.00    +0.264 A 
ATOM      7  O2  UNL     1      18.793   8.500  12.822  0.00  0.00    -0.267 OA
ATOM      8  C9  UNL     1      17.031   6.909  10.909  0.00  0.00    +0.050 A 
ATOM      9  C10 UNL     1      16.237   5.918  10.244  0.00  0.00    +0.056 A 
ATOM     10  C11 UNL     1      16.050   4.626  10.859  0.00  0.00    +0.056 A 
ATOM     11  C12 UNL     1      16.660   4.351  12.126  0.00  0.00    +0.050 A 
ATOM     12  C13 UNL     1      15.297   3.637  10.167  0.00  0.00    +0.196 A 
ATOM     13  O3  UNL     1      15.191   2.469  10.632  0.00  0.00    -0.287 OA
ATOM     14  C14 UNL     1      14.681   3.927   8.936  0.00  0.00    +0.033 A 
ATOM     15  C15 UNL     1      14.864   5.191   8.335  0.00  0.00    +0.033 A 
ATOM     16  C16 UNL     1      15.663   6.162   8.965  0.00  0.00    +0.196 A 
ATOM     17  O4  UNL     1      15.883   7.247   8.359  0.00  0.00    -0.287 OA
ATOM     18  C17 UNL     1      14.255   5.456   7.088  0.00  0.00    +0.012 A 
ATOM     19  C18 UNL     1      13.476   4.487   6.455  0.00  0.00    +0.001 A 
ATOM     20  C19 UNL     1      13.296   3.240   7.049  0.00  0.00    +0.001 A 
ATOM     21  C20 UNL     1      13.893   2.957   8.277  0.00  0.00    +0.012 A 
ENDROOT
BRANCH   8  22
ATOM     22  N2  UNL     1      17.161   8.250  10.417  0.00  0.00    -0.357 N 
ATOM     23  H10 UNL     1      18.065   8.764  10.490  0.00  0.00    +0.142 HD
ATOM     24  H11 UNL     1      16.321   8.792  10.117  0.00  0.00    +0.142 HD
ENDBRANCH   8  22
BRANCH  11  25
ATOM     25  N3  UNL     1      16.422   3.136  12.850  0.00  0.00    -0.357 N 
ATOM     26  H12 UNL     1      17.184   2.671  13.388  0.00  0.00    +0.142 HD
ATOM     27  H13 UNL     1      15.450   2.775  12.979  0.00  0.00    +0.142 HD
ENDBRANCH  11  25
BRANCH   1  28
ATOM     28  C4  UNL     1      19.520   7.018  15.241  0.00  0.00    +0.128 C 
BRANCH  28  29
ATOM     29  C3  UNL     1      18.600   7.281  16.440  0.00  0.00    +0.021 C 
BRANCH  29  31
ATOM     30  C1  UNL     1      16.384   8.427  16.050  0.00  0.00    +0.004 C 
ATOM     31  C2  UNL     1      17.871   8.628  16.328  0.00  0.00    -0.002 C 
ENDBRANCH  29  31
ENDBRANCH  28  29
ENDBRANCH   1  28
TORSDOF 5
ENDMDL
MODEL 5
REMARK minimizedAffinity -6.41476774
REMARK minimizedRMSD -1
REMARK  Name = /home/tchapet/Post-Doc/ARTICLES-DOSSIERS-DES-ARTICLES-EN-REDACTION/NOUVELS-AXES-DE-RECHERCHE-A-REGARDER-URGEMMENT/ARTICLES-EN-REDACTIONS/ARTICLE_MVOTO/Paper2_JCIM/docking_rerun/ligands/18506.pdb
REMARK  6 active torsions:
REMARK  status: ('A' for Active; 'I' for Inactive)
REMARK    1  A    between atoms: C1_1  and  C2_2
REMARK    2  A    between atoms: C2_2  and  C3_3
REMARK    3  A    between atoms: C3_3  and  C4_4
REMARK    4  A    between atoms: C4_4  and  N1_5
REMARK    5  A    between atoms: C9_12  and  N2_13
REMARK    6  A    between atoms: C12_16  and  N3_17
REMARK                            x       y       z     vdW  Elec       q    Type
REMARK                         _______ _______ _______ _____ _____    ______ ____
ROOT
ATOM      1  N1  UNL     1     -18.864 -31.149  11.421  0.00  0.00    -0.275 N 
ATOM      2  C5  UNL     1     -20.023 -30.634  10.956  0.00  0.00    +0.264 A 
ATOM      3  O1  UNL     1     -20.865 -30.041  11.684  0.00  0.00    -0.267 OA
ATOM      4  C6  UNL     1     -20.125 -30.825   9.584  0.00  0.00    +0.075 A 
ATOM      5  C7  UNL     1     -18.979 -31.468   9.195  0.00  0.00    +0.075 A 
ATOM      6  C8  UNL     1     -18.219 -31.647  10.343  0.00  0.00    +0.264 A 
ATOM      7  O2  UNL     1     -17.074 -32.172  10.397  0.00  0.00    -0.267 OA
ATOM      8  C9  UNL     1     -18.701 -31.744   7.854  0.00  0.00    +0.050 A 
ATOM      9  C10 UNL     1     -19.687 -31.399   6.871  0.00  0.00    +0.056 A 
ATOM     10  C11 UNL     1     -20.893 -30.721   7.281  0.00  0.00    +0.056 A 
ATOM     11  C12 UNL     1     -21.089 -30.402   8.665  0.00  0.00    +0.050 A 
ATOM     12  C13 UNL     1     -21.883 -30.425   6.304  0.00  0.00    +0.196 A 
ATOM     13  O3  UNL     1     -22.987 -29.916   6.641  0.00  0.00    -0.287 OA
ATOM     14  C14 UNL     1     -21.667 -30.719   4.945  0.00  0.00    +0.033 A 
ATOM     15  C15 UNL     1     -20.487 -31.382   4.544  0.00  0.00    +0.033 A 
ATOM     16  C16 UNL     1     -19.525 -31.750   5.502  0.00  0.00    +0.196 A 
ATOM     17  O4  UNL     1     -18.527 -32.423   5.126  0.00  0.00    -0.287 OA
ATOM     18  C17 UNL     1     -20.299 -31.689   3.178  0.00  0.00    +0.012 A 
ATOM     19  C18 UNL     1     -21.261 -31.339   2.230  0.00  0.00    +0.001 A 
ATOM     20  C19 UNL     1     -22.425 -30.685   2.626  0.00  0.00    +0.001 A 
ATOM     21  C20 UNL     1     -22.632 -30.378   3.971  0.00  0.00    +0.012 A 
ENDROOT
BRANCH   8  22
ATOM     22  N2  UNL     1     -17.430 -32.310   7.505  0.00  0.00    -0.357 N 
ATOM     23  H10 UNL     1     -16.985 -33.040   8.100  0.00  0.00    +0.142 HD
ATOM     24  H11 UNL     1     -16.855 -31.896   6.737  0.00  0.00    +0.142 HD
ENDBRANCH   8  22
BRANCH  11  25
ATOM     25  N3  UNL     1     -22.204 -29.627   9.127  0.00  0.00    -0.357 N 
ATOM     26  H12 UNL     1     -22.673 -29.845  10.033  0.00  0.00    +0.142 HD
ATOM     27  H13 UNL     1     -22.473 -28.739   8.646  0.00  0.00    +0.142 HD
ENDBRANCH  11  25
BRANCH   1  28
ATOM     28  C4  UNL     1     -18.364 -31.099  12.798  0.00  0.00    +0.128 C 
BRANCH  28  29
ATOM     29  C3  UNL     1     -17.699 -29.750  13.101  0.00  0.00    +0.021 C 
BRANCH  29  31
ATOM     30  C1  UNL     1     -15.590 -31.083  13.485  0.00  0.00    +0.004 C 
ATOM     31  C2  UNL     1     -16.177 -29.798  12.910  0.00  0.00    -0.002 C 
ENDBRANCH  29  31
ENDBRANCH  28  29
ENDBRANCH   1  28
TORSDOF 5
ENDMDL
MODEL 6
REMARK minimizedAffinity -6.21531296
REMARK minimizedRMSD -1
REMARK  Name = /home/tchapet/Post-Doc/ARTICLES-DOSSIERS-DES-ARTICLES-EN-REDACTION/NOUVELS-AXES-DE-RECHERCHE-A-REGARDER-URGEMMENT/ARTICLES-EN-REDACTIONS/ARTICLE_MVOTO/Paper2_JCIM/docking_rerun/ligands/18506.pdb
REMARK  6 active torsions:
REMARK  status: ('A' for Active; 'I' for Inactive)
REMARK    1  A    between atoms: C1_1  and  C2_2
REMARK    2  A    between atoms: C2_2  and  C3_3
REMARK    3  A    between atoms: C3_3  and  C4_4
REMARK    4  A    between atoms: C4_4  and  N1_5
REMARK    5  A    between atoms: C9_12  and  N2_13
REMARK    6  A    between atoms: C12_16  and  N3_17
REMARK                            x       y       z     vdW  Elec       q    Type
REMARK                         _______ _______ _______ _____ _____    ______ ____
ROOT
ATOM      1  N1  UNL     1     -26.502 -33.378   1.826  0.00  0.00    -0.275 N 
ATOM      2  C5  UNL     1     -25.293 -33.888   1.505  0.00  0.00    +0.264 A 
ATOM      3  O1  UNL     1     -25.132 -35.019   0.972  0.00  0.00    -0.267 OA
ATOM      4  C6  UNL     1     -24.285 -32.984   1.816  0.00  0.00    +0.075 A 
ATOM      5  C7  UNL     1     -24.904 -31.874   2.331  0.00  0.00    +0.075 A 
ATOM      6  C8  UNL     1     -26.266 -32.141   2.317  0.00  0.00    +0.264 A 
ATOM      7  O2  UNL     1     -27.178 -31.350   2.681  0.00  0.00    -0.267 OA
ATOM      8  C9  UNL     1     -24.194 -30.720   2.674  0.00  0.00    +0.050 A 
ATOM      9  C10 UNL     1     -22.767 -30.736   2.540  0.00  0.00    +0.056 A 
ATOM     10  C11 UNL     1     -22.116 -31.904   1.996  0.00  0.00    +0.056 A 
ATOM     11  C12 UNL     1     -22.906 -33.032   1.597  0.00  0.00    +0.050 A 
ATOM     12  C13 UNL     1     -20.697 -31.924   1.911  0.00  0.00    +0.196 A 
ATOM     13  O3  UNL     1     -20.091 -32.962   1.527  0.00  0.00    -0.287 OA
ATOM     14  C14 UNL     1     -19.934 -30.801   2.281  0.00  0.00    +0.033 A 
ATOM     15  C15 UNL     1     -20.571 -29.659   2.812  0.00  0.00    +0.033 A 
ATOM     16  C16 UNL     1     -21.968 -29.642   2.973  0.00  0.00    +0.196 A 
ATOM     17  O4  UNL     1     -22.497 -28.645   3.537  0.00  0.00    -0.287 OA
ATOM     18  C17 UNL     1     -19.786 -28.549   3.199  0.00  0.00    +0.012 A 
ATOM     19  C18 UNL     1     -18.399 -28.573   3.054  0.00  0.00    +0.001 A 
ATOM     20  C19 UNL     1     -17.771 -29.700   2.530  0.00  0.00    +0.001 A 
ATOM     21  C20 UNL     1     -18.528 -30.808   2.147  0.00  0.00    +0.012 A 
ENDROOT
BRANCH   8  22
ATOM     22  N2  UNL     1     -24.916 -29.554   3.093  0.00  0.00    -0.357 N 
ATOM     23  H10 UNL     1     -25.753 -29.632   3.709  0.00  0.00    +0.142 HD
ATOM     24  H11 UNL     1     -24.714 -28.621   2.669  0.00  0.00    +0.142 HD
ENDBRANCH   8  22
BRANCH  11  25
ATOM     25  N3  UNL     1     -22.341 -34.176   0.942  0.00  0.00    -0.357 N 
ATOM     26  H12 UNL     1     -22.685 -35.139   1.147  0.00  0.00    +0.142 HD
ATOM     27  H13 UNL     1     -21.684 -34.059   0.138  0.00  0.00    +0.142 HD
ENDBRANCH  11  25
BRANCH   1  28
ATOM     28  C4  UNL     1     -27.811 -33.998   1.601  0.00  0.00    +0.128 C 
BRANCH  28  29
ATOM     29  C3  UNL     1     -28.165 -34.029   0.109  0.00  0.00    +0.021 C 
BRANCH  29  31
ATOM     30  C1  UNL     1     -27.190 -32.300  -1.450  0.00  0.00    +0.004 C 
ATOM     31  C2  UNL     1     -28.322 -32.620  -0.479  0.00  0.00    -0.002 C 
ENDBRANCH  29  31
ENDBRANCH  28  29
ENDBRANCH   1  28
TORSDOF 5
ENDMDL
MODEL 7
REMARK minimizedAffinity -6.20410585
REMARK minimizedRMSD -1
REMARK  Name = /home/tchapet/Post-Doc/ARTICLES-DOSSIERS-DES-ARTICLES-EN-REDACTION/NOUVELS-AXES-DE-RECHERCHE-A-REGARDER-URGEMMENT/ARTICLES-EN-REDACTIONS/ARTICLE_MVOTO/Paper2_JCIM/docking_rerun/ligands/18506.pdb
REMARK  6 active torsions:
REMARK  status: ('A' for Active; 'I' for Inactive)
REMARK    1  A    between atoms: C1_1  and  C2_2
REMARK    2  A    between atoms: C2_2  and  C3_3
REMARK    3  A    between atoms: C3_3  and  C4_4
REMARK    4  A    between atoms: C4_4  and  N1_5
REMARK    5  A    between atoms: C9_12  and  N2_13
REMARK    6  A    between atoms: C12_16  and  N3_17
REMARK                            x       y       z     vdW  Elec       q    Type
REMARK                         _______ _______ _______ _____ _____    ______ ____
ROOT
ATOM      1  N1  UNL     1     -20.514 -31.053   4.800  0.00  0.00    -0.275 N 
ATOM      2  C5  UNL     1     -21.210 -30.513   5.825  0.00  0.00    +0.264 A 
ATOM      3  O1  UNL     1     -22.325 -29.944   5.687  0.00  0.00    -0.267 OA
ATOM      4  C6  UNL     1     -20.538 -30.708   7.025  0.00  0.00    +0.075 A 
ATOM      5  C7  UNL     1     -19.396 -31.405   6.723  0.00  0.00    +0.075 A 
ATOM      6  C8  UNL     1     -19.412 -31.610   5.350  0.00  0.00    +0.264 A 
ATOM      7  O2  UNL     1     -18.548 -32.246   4.688  0.00  0.00    -0.267 OA
ATOM      8  C9  UNL     1     -18.516 -31.854   7.711  0.00  0.00    +0.050 A 
ATOM      9  C10 UNL     1     -18.794 -31.508   9.075  0.00  0.00    +0.056 A 
ATOM     10  C11 UNL     1     -19.996 -30.775   9.392  0.00  0.00    +0.056 A 
ATOM     11  C12 UNL     1     -20.896 -30.403   8.340  0.00  0.00    +0.050 A 
ATOM     12  C13 UNL     1     -20.236 -30.400  10.743  0.00  0.00    +0.196 A 
ATOM     13  O3  UNL     1     -21.229 -29.681  11.042  0.00  0.00    -0.287 OA
ATOM     14  C14 UNL     1     -19.359 -30.793  11.770  0.00  0.00    +0.033 A 
ATOM     15  C15 UNL     1     -18.184 -31.510  11.459  0.00  0.00    +0.033 A 
ATOM     16  C16 UNL     1     -17.887 -31.831  10.122  0.00  0.00    +0.196 A 
ATOM     17  O4  UNL     1     -16.785 -32.390   9.867  0.00  0.00    -0.287 OA
ATOM     18  C17 UNL     1     -17.304 -31.877  12.501  0.00  0.00    +0.012 A 
ATOM     19  C18 UNL     1     -17.590 -31.544  13.826  0.00  0.00    +0.001 A 
ATOM     20  C19 UNL     1     -18.750 -30.836  14.132  0.00  0.00    +0.001 A 
ATOM     21  C20 UNL     1     -19.629 -30.460  13.116  0.00  0.00    +0.012 A 
ENDROOT
BRANCH   8  22
ATOM     22  N2  UNL     1     -17.406 -32.681   7.336  0.00  0.00    -0.357 N 
ATOM     23  H10 UNL     1     -16.868 -32.495   6.463  0.00  0.00    +0.142 HD
ATOM     24  H11 UNL     1     -17.210 -33.572   7.844  0.00  0.00    +0.142 HD
ENDBRANCH   8  22
BRANCH  11  25
ATOM     25  N3  UNL     1     -22.163 -29.780   8.594  0.00  0.00    -0.357 N 
ATOM     26  H12 UNL     1     -22.535 -29.040   7.961  0.00  0.00    +0.142 HD
ATOM     27  H13 UNL     1     -22.807 -30.160   9.324  0.00  0.00    +0.142 HD
ENDBRANCH  11  25
BRANCH   1  28
ATOM     28  C4  UNL     1     -20.914 -31.104   3.391  0.00  0.00    +0.128 C 
BRANCH  28  29
ATOM     29  C3  UNL     1     -20.636 -29.772   2.683  0.00  0.00    +0.021 C 
BRANCH  29  31
ATOM     30  C1  UNL     1     -18.382 -28.694   3.045  0.00  0.00    +0.004 C 
ATOM     31  C2  UNL     1     -19.186 -29.668   2.190  0.00  0.00    -0.002 C 
ENDBRANCH  29  31
ENDBRANCH  28  29
ENDBRANCH   1  28
TORSDOF 5
ENDMDL
MODEL 8
REMARK minimizedAffinity -6.15316296
REMARK minimizedRMSD -1
REMARK  Name = /home/tchapet/Post-Doc/ARTICLES-DOSSIERS-DES-ARTICLES-EN-REDACTION/NOUVELS-AXES-DE-RECHERCHE-A-REGARDER-URGEMMENT/ARTICLES-EN-REDACTIONS/ARTICLE_MVOTO/Paper2_JCIM/docking_rerun/ligands/18506.pdb
REMARK  6 active torsions:
REMARK  status: ('A' for Active; 'I' for Inactive)
REMARK    1  A    between atoms: C1_1  and  C2_2
REMARK    2  A    between atoms: C2_2  and  C3_3
REMARK    3  A    between atoms: C3_3  and  C4_4
REMARK    4  A    between atoms: C4_4  and  N1_5
REMARK    5  A    between atoms: C9_12  and  N2_13
REMARK    6  A    between atoms: C12_16  and  N3_17
REMARK                            x       y       z     vdW  Elec       q    Type
REMARK                         _______ _______ _______ _____ _____    ______ ____
ROOT
ATOM      1  N1  UNL     1      -0.632  -8.704   5.104  0.00  0.00    -0.275 N 
ATOM      2  C5  UNL     1      -0.250  -8.332   3.862  0.00  0.00    +0.264 A 
ATOM      3  O1  UNL     1      -0.764  -8.791   2.807  0.00  0.00    -0.267 OA
ATOM      4  C6  UNL     1       0.748  -7.367   3.929  0.00  0.00    +0.075 A 
ATOM      5  C7  UNL     1       0.972  -7.132   5.261  0.00  0.00    +0.075 A 
ATOM      6  C8  UNL     1       0.104  -7.961   5.959  0.00  0.00    +0.264 A 
ATOM      7  O2  UNL     1      -0.020  -8.014   7.212  0.00  0.00    -0.267 OA
ATOM      8  C9  UNL     1       1.859  -6.146   5.702  0.00  0.00    +0.050 A 
ATOM      9  C10 UNL     1       2.602  -5.413   4.719  0.00  0.00    +0.056 A 
ATOM     10  C11 UNL     1       2.364  -5.660   3.318  0.00  0.00    +0.056 A 
ATOM     11  C12 UNL     1       1.390  -6.636   2.927  0.00  0.00    +0.050 A 
ATOM     12  C13 UNL     1       3.140  -4.958   2.354  0.00  0.00    +0.196 A 
ATOM     13  O3  UNL     1       3.023  -5.216   1.124  0.00  0.00    -0.287 OA
ATOM     14  C14 UNL     1       4.074  -3.984   2.748  0.00  0.00    +0.033 A 
ATOM     15  C15 UNL     1       4.306  -3.742   4.120  0.00  0.00    +0.033 A 
ATOM     16  C16 UNL     1       3.603  -4.474   5.093  0.00  0.00    +0.196 A 
ATOM     17  O4  UNL     1       3.899  -4.301   6.308  0.00  0.00    -0.287 OA
ATOM     18  C17 UNL     1       5.265  -2.775   4.497  0.00  0.00    +0.012 A 
ATOM     19  C18 UNL     1       5.974  -2.060   3.531  0.00  0.00    +0.001 A 
ATOM     20  C19 UNL     1       5.745  -2.300   2.178  0.00  0.00    +0.001 A 
ATOM     21  C20 UNL     1       4.806  -3.254   1.786  0.00  0.00    +0.012 A 
ENDROOT
BRANCH   8  22
ATOM     22  N2  UNL     1       1.955  -5.869   7.106  0.00  0.00    -0.357 N 
ATOM     23  H10 UNL     1       1.927  -6.639   7.809  0.00  0.00    +0.142 HD
ATOM     24  H11 UNL     1       1.901  -4.889   7.461  0.00  0.00    +0.142 HD
ENDBRANCH   8  22
BRANCH  11  25
ATOM     25  N3  UNL     1       1.018  -6.850   1.558  0.00  0.00    -0.357 N 
ATOM     26  H12 UNL     1       0.811  -7.807   1.199  0.00  0.00    +0.142 HD
ATOM     27  H13 UNL     1       0.798  -6.042   0.933  0.00  0.00    +0.142 HD
ENDBRANCH  11  25
BRANCH   1  28
ATOM     28  C4  UNL     1      -1.693  -9.653   5.454  0.00  0.00    +0.128 C 
BRANCH  28  29
ATOM     29  C3  UNL     1      -1.247 -11.102   5.215  0.00  0.00    +0.021 C 
BRANCH  29  31
ATOM     30  C1  UNL     1      -1.712 -11.255   7.691  0.00  0.00    +0.004 C 
ATOM     31  C2  UNL     1      -0.916 -11.831   6.524  0.00  0.00    -0.002 C 
ENDBRANCH  29  31
ENDBRANCH  28  29
ENDBRANCH   1  28
TORSDOF 5
ENDMDL
MODEL 9
REMARK minimizedAffinity -6.11345196
REMARK minimizedRMSD -1
REMARK  Name = /home/tchapet/Post-Doc/ARTICLES-DOSSIERS-DES-ARTICLES-EN-REDACTION/NOUVELS-AXES-DE-RECHERCHE-A-REGARDER-URGEMMENT/ARTICLES-EN-REDACTIONS/ARTICLE_MVOTO/Paper2_JCIM/docking_rerun/ligands/18506.pdb
REMARK  6 active torsions:
REMARK  status: ('A' for Active; 'I' for Inactive)
REMARK    1  A    between atoms: C1_1  and  C2_2
REMARK    2  A    between atoms: C2_2  and  C3_3
REMARK    3  A    between atoms: C3_3  and  C4_4
REMARK    4  A    between atoms: C4_4  and  N1_5
REMARK    5  A    between atoms: C9_12  and  N2_13
REMARK    6  A    between atoms: C12_16  and  N3_17
REMARK                            x       y       z     vdW  Elec       q    Type
REMARK                         _______ _______ _______ _____ _____    ______ ____
ROOT
ATOM      1  N1  UNL     1      10.653  27.749  24.261  0.00  0.00    -0.275 N 
ATOM      2  C5  UNL     1      11.930  28.186  24.199  0.00  0.00    +0.264 A 
ATOM      3  O1  UNL     1      12.311  29.296  24.657  0.00  0.00    -0.267 OA
ATOM      4  C6  UNL     1      12.742  27.233  23.596  0.00  0.00    +0.075 A 
ATOM      5  C7  UNL     1      11.932  26.169  23.293  0.00  0.00    +0.075 A 
ATOM      6  C8  UNL     1      10.656  26.511  23.720  0.00  0.00    +0.264 A 
ATOM      7  O2  UNL     1       9.633  25.778  23.650  0.00  0.00    -0.267 OA
ATOM      8  C9  UNL     1      12.435  24.983  22.751  0.00  0.00    +0.050 A 
ATOM      9  C10 UNL     1      13.834  24.918  22.444  0.00  0.00    +0.056 A 
ATOM     10  C11 UNL     1      14.686  26.037  22.765  0.00  0.00    +0.056 A 
ATOM     11  C12 UNL     1      14.122  27.200  23.385  0.00  0.00    +0.050 A 
ATOM     12  C13 UNL     1      16.064  25.977  22.415  0.00  0.00    +0.196 A 
ATOM     13  O3  UNL     1      16.817  26.973  22.597  0.00  0.00    -0.287 OA
ATOM     14  C14 UNL     1      16.611  24.820  21.831  0.00  0.00    +0.033 A 
ATOM     15  C15 UNL     1      15.777  23.725  21.517  0.00  0.00    +0.033 A 
ATOM     16  C16 UNL     1      14.398  23.789  21.788  0.00  0.00    +0.196 A 
ATOM     17  O4  UNL     1      13.666  22.832  21.412  0.00  0.00    -0.287 OA
ATOM     18  C17 UNL     1      16.341  22.580  20.910  0.00  0.00    +0.012 A 
ATOM     19  C18 UNL     1      17.706  22.524  20.627  0.00  0.00    +0.001 A 
ATOM     20  C19 UNL     1      18.528  23.605  20.936  0.00  0.00    +0.001 A 
ATOM     21  C20 UNL     1      17.989  24.746  21.531  0.00  0.00    +0.012 A 
ENDROOT
BRANCH   8  22
ATOM     22  N2  UNL     1      11.553  23.867  22.570  0.00  0.00    -0.357 N 
ATOM     23  H10 UNL     1      10.575  24.003  22.237  0.00  0.00    +0.142 HD
ATOM     24  H11 UNL     1      11.819  22.916  22.913  0.00  0.00    +0.142 HD
ENDBRANCH   8  22
BRANCH  11  25
ATOM     25  N3  UNL     1      14.926  28.299  23.838  0.00  0.00    -0.357 N 
ATOM     26  H12 UNL     1      14.592  29.283  23.747  0.00  0.00    +0.142 HD
ATOM     27  H13 UNL     1      15.787  28.131  24.404  0.00  0.00    +0.142 HD
ENDBRANCH  11  25
BRANCH   1  28
ATOM     28  C4  UNL     1       9.513  28.438  24.872  0.00  0.00    +0.128 C 
BRANCH  28  29
ATOM     29  C3  UNL     1       9.048  27.723  26.148  0.00  0.00    +0.021 C 
BRANCH  29  31
ATOM     30  C1  UNL     1       9.421  27.404  28.624  0.00  0.00    +0.004 C 
ATOM     31  C2  UNL     1       9.995  27.973  27.330  0.00  0.00    -0.002 C 
ENDBRANCH  29  31
ENDBRANCH  28  29
ENDBRANCH   1  28
TORSDOF 5
ENDMDL
