MODEL 1
REMARK minimizedAffinity -4.69429922
REMARK minimizedRMSD -1
REMARK  Name = /home/tchapet/Post-Doc/ARTICLES-DOSSIERS-DES-ARTICLES-EN-REDACTION/NOUVELS-AXES-DE-RECHERCHE-A-REGARDER-URGEMMENT/ARTICLES-EN-REDACTIONS/ARTICLE_MVOTO/Paper2_Sensors_ActuatorsB/docking_rerun/ligands/20778.pdb
REMARK  7 active torsions:
REMARK  status: ('A' for Active; 'I' for Inactive)
REMARK    1  A    between atoms: N2_2  and  N3_3
REMARK    2  A    between atoms: C2_6  and  N5_7
REMARK    3  A    between atoms: N5_7  and  C3_8
REMARK    4  A    between atoms: C3_8  and  C4_9
REMARK    5  A    between atoms: C3_8  and  C5_10
REMARK    6  A    between atoms: C6_12  and  S1_14
REMARK    7  A    between atoms: S1_14  and  C7_15
REMARK                            x       y       z     vdW  Elec       q    Type
REMARK                         _______ _______ _______ _____ _____    ______ ____
ROOT
ATOM      1  N3  UNL     1     -16.097  33.147  19.281  0.00  0.00    -0.126 N 
ATOM      2  C1  UNL     1     -17.001  33.814  18.398  0.00  0.00    +0.252 A 
ATOM      3  N4  UNL     1     -17.837  34.769  18.881  0.00  0.00    -0.178 NA
ATOM      4  C2  UNL     1     -18.700  35.408  18.052  0.00  0.00    +0.240 A 
ATOM      5  N6  UNL     1     -18.724  35.088  16.733  0.00  0.00    -0.187 NA
ATOM      6  C6  UNL     1     -17.891  34.137  16.244  0.00  0.00    +0.194 A 
ATOM      7  N7  UNL     1     -17.030  33.499  17.076  0.00  0.00    -0.187 NA
ATOM      8  H1  UNL     1     -16.081  33.395  20.295  0.00  0.00    +0.193 HD
ENDROOT
BRANCH   1  10
ATOM      9  N1  UNL     1     -14.553  31.403  18.440  0.00  0.00    -0.017 NA
ATOM     10  N2  UNL     1     -15.251  32.192  18.820  0.00  0.00    -0.126 NA
ENDBRANCH   1  10
BRANCH   6  11
ATOM     11  S1  UNL     1     -17.926  33.724  14.505  0.00  0.00    -0.089 S 
ATOM     12  C7  UNL     1     -19.542  32.897  14.618  0.00  0.00    +0.093 C 
ENDBRANCH   6  11
BRANCH   4  13
ATOM     13  N5  UNL     1     -19.569  36.416  18.585  0.00  0.00    -0.213 NA
BRANCH  13  14
ATOM     14  C3  UNL     1     -19.895  36.630  19.997  0.00  0.00    +0.091 C 
ATOM     15  C4  UNL     1     -19.143  37.838  20.565  0.00  0.00    +0.029 C 
ATOM     16  C5  UNL     1     -21.407  36.748  20.207  0.00  0.00    +0.029 C 
ENDBRANCH  13  14
ENDBRANCH   4  13
TORSDOF 4
ENDMDL
MODEL 2
REMARK minimizedAffinity -4.64663839
REMARK minimizedRMSD -1
REMARK  Name = /home/tchapet/Post-Doc/ARTICLES-DOSSIERS-DES-ARTICLES-EN-REDACTION/NOUVELS-AXES-DE-RECHERCHE-A-REGARDER-URGEMMENT/ARTICLES-EN-REDACTIONS/ARTICLE_MVOTO/Paper2_Sensors_ActuatorsB/docking_rerun/ligands/20778.pdb
REMARK  7 active torsions:
REMARK  status: ('A' for Active; 'I' for Inactive)
REMARK    1  A    between atoms: N2_2  and  N3_3
REMARK    2  A    between atoms: C2_6  and  N5_7
REMARK    3  A    between atoms: N5_7  and  C3_8
REMARK    4  A    between atoms: C3_8  and  C4_9
REMARK    5  A    between atoms: C3_8  and  C5_10
REMARK    6  A    between atoms: C6_12  and  S1_14
REMARK    7  A    between atoms: S1_14  and  C7_15
REMARK                            x       y       z     vdW  Elec       q    Type
REMARK                         _______ _______ _______ _____ _____    ______ ____
ROOT
ATOM      1  N3  UNL     1     -19.392   4.697   6.548  0.00  0.00    -0.126 N 
ATOM      2  C1  UNL     1     -18.184   4.005   6.872  0.00  0.00    +0.252 A 
ATOM      3  N4  UNL     1     -17.689   4.066   8.135  0.00  0.00    -0.178 NA
ATOM      4  C2  UNL     1     -16.543   3.414   8.455  0.00  0.00    +0.240 A 
ATOM      5  N6  UNL     1     -15.892   2.695   7.503  0.00  0.00    -0.187 NA
ATOM      6  C6  UNL     1     -16.384   2.629   6.242  0.00  0.00    +0.194 A 
ATOM      7  N7  UNL     1     -17.529   3.283   5.926  0.00  0.00    -0.187 NA
ATOM      8  H1  UNL     1     -19.889   5.249   7.282  0.00  0.00    +0.193 HD
ENDROOT
BRANCH   1  10
ATOM      9  N1  UNL     1     -20.332   4.605   4.259  0.00  0.00    -0.017 NA
ATOM     10  N2  UNL     1     -19.907   4.647   5.294  0.00  0.00    -0.126 NA
ENDBRANCH   1  10
BRANCH   6  11
ATOM     11  S1  UNL     1     -15.523   1.677   4.996  0.00  0.00    -0.089 S 
ATOM     12  C7  UNL     1     -14.015   1.515   6.000  0.00  0.00    +0.093 C 
ENDBRANCH   6  11
BRANCH   4  13
ATOM     13  N5  UNL     1     -16.042   3.490   9.796  0.00  0.00    -0.213 NA
BRANCH  13  14
ATOM     14  C3  UNL     1     -16.782   3.185  11.023  0.00  0.00    +0.091 C 
ATOM     15  C4  UNL     1     -16.052   2.133  11.865  0.00  0.00    +0.029 C 
ATOM     16  C5  UNL     1     -17.076   4.455  11.826  0.00  0.00    +0.029 C 
ENDBRANCH  13  14
ENDBRANCH   4  13
TORSDOF 4
ENDMDL
MODEL 3
REMARK minimizedAffinity -4.57680082
REMARK minimizedRMSD -1
REMARK  Name = /home/tchapet/Post-Doc/ARTICLES-DOSSIERS-DES-ARTICLES-EN-REDACTION/NOUVELS-AXES-DE-RECHERCHE-A-REGARDER-URGEMMENT/ARTICLES-EN-REDACTIONS/ARTICLE_MVOTO/Paper2_Sensors_ActuatorsB/docking_rerun/ligands/20778.pdb
REMARK  7 active torsions:
REMARK  status: ('A' for Active; 'I' for Inactive)
REMARK    1  A    between atoms: N2_2  and  N3_3
REMARK    2  A    between atoms: C2_6  and  N5_7
REMARK    3  A    between atoms: N5_7  and  C3_8
REMARK    4  A    between atoms: C3_8  and  C4_9
REMARK    5  A    between atoms: C3_8  and  C5_10
REMARK    6  A    between atoms: C6_12  and  S1_14
REMARK    7  A    between atoms: S1_14  and  C7_15
REMARK                            x       y       z     vdW  Elec       q    Type
REMARK                         _______ _______ _______ _____ _____    ______ ____
ROOT
ATOM      1  N3  UNL     1     -25.844  15.461   9.715  0.00  0.00    -0.126 N 
ATOM      2  C1  UNL     1     -25.268  14.590   8.739  0.00  0.00    +0.252 A 
ATOM      3  N4  UNL     1     -24.131  14.957   8.094  0.00  0.00    -0.178 NA
ATOM      4  C2  UNL     1     -23.575  14.139   7.165  0.00  0.00    +0.240 A 
ATOM      5  N6  UNL     1     -24.162  12.947   6.884  0.00  0.00    -0.187 NA
ATOM      6  C6  UNL     1     -25.296  12.574   7.527  0.00  0.00    +0.194 A 
ATOM      7  N7  UNL     1     -25.849  13.395   8.454  0.00  0.00    -0.187 NA
ATOM      8  H1  UNL     1     -25.391  16.377   9.928  0.00  0.00    +0.193 HD
ENDROOT
BRANCH   1  10
ATOM      9  N1  UNL     1     -27.914  14.826  10.919  0.00  0.00    -0.017 NA
ATOM     10  N2  UNL     1     -26.978  15.113  10.374  0.00  0.00    -0.126 NA
ENDBRANCH   1  10
BRANCH   6  11
ATOM     11  S1  UNL     1     -26.059  11.001   7.154  0.00  0.00    -0.089 S 
ATOM     12  C7  UNL     1     -27.724  11.572   7.614  0.00  0.00    +0.093 C 
ENDBRANCH   6  11
BRANCH   4  13
ATOM     13  N5  UNL     1     -22.372  14.547   6.500  0.00  0.00    -0.213 NA
BRANCH  13  14
ATOM     14  C3  UNL     1     -22.093  14.452   5.065  0.00  0.00    +0.091 C 
ATOM     15  C4  UNL     1     -22.545  15.715   4.326  0.00  0.00    +0.029 C 
ATOM     16  C5  UNL     1     -20.617  14.136   4.806  0.00  0.00    +0.029 C 
ENDBRANCH  13  14
ENDBRANCH   4  13
TORSDOF 4
ENDMDL
MODEL 4
REMARK minimizedAffinity -4.57666397
REMARK minimizedRMSD -1
REMARK  Name = /home/tchapet/Post-Doc/ARTICLES-DOSSIERS-DES-ARTICLES-EN-REDACTION/NOUVELS-AXES-DE-RECHERCHE-A-REGARDER-URGEMMENT/ARTICLES-EN-REDACTIONS/ARTICLE_MVOTO/Paper2_Sensors_ActuatorsB/docking_rerun/ligands/20778.pdb
REMARK  7 active torsions:
REMARK  status: ('A' for Active; 'I' for Inactive)
REMARK    1  A    between atoms: N2_2  and  N3_3
REMARK    2  A    between atoms: C2_6  and  N5_7
REMARK    3  A    between atoms: N5_7  and  C3_8
REMARK    4  A    between atoms: C3_8  and  C4_9
REMARK    5  A    between atoms: C3_8  and  C5_10
REMARK    6  A    between atoms: C6_12  and  S1_14
REMARK    7  A    between atoms: S1_14  and  C7_15
REMARK                            x       y       z     vdW  Elec       q    Type
REMARK                         _______ _______ _______ _____ _____    ______ ____
ROOT
ATOM      1  N3  UNL     1     -13.456  25.236  12.001  0.00  0.00    -0.126 N 
ATOM      2  C1  UNL     1     -13.369  24.017  11.260  0.00  0.00    +0.252 A 
ATOM      3  N4  UNL     1     -12.710  22.952  11.787  0.00  0.00    -0.178 NA
ATOM      4  C2  UNL     1     -12.621  21.790  11.092  0.00  0.00    +0.240 A 
ATOM      5  N6  UNL     1     -13.196  21.695   9.866  0.00  0.00    -0.187 NA
ATOM      6  C6  UNL     1     -13.856  22.754   9.337  0.00  0.00    +0.194 A 
ATOM      7  N7  UNL     1     -13.942  23.915  10.033  0.00  0.00    -0.187 NA
ATOM      8  H1  UNL     1     -13.012  25.306  12.944  0.00  0.00    +0.193 HD
ENDROOT
BRANCH   1  10
ATOM      9  N1  UNL     1     -14.651  27.199  11.079  0.00  0.00    -0.017 NA
ATOM     10  N2  UNL     1     -14.110  26.311  11.496  0.00  0.00    -0.126 NA
ENDBRANCH   1  10
BRANCH   6  11
ATOM     11  S1  UNL     1     -14.614  22.619   7.722  0.00  0.00    -0.089 S 
ATOM     12  C7  UNL     1     -13.879  20.990   7.389  0.00  0.00    +0.093 C 
ENDBRANCH   6  11
BRANCH   4  13
ATOM     13  N5  UNL     1     -11.924  20.678  11.671  0.00  0.00    -0.213 NA
BRANCH  13  14
ATOM     14  C3  UNL     1     -10.517  20.645  12.075  0.00  0.00    +0.091 C 
ATOM     15  C4  UNL     1     -10.341  19.934  13.421  0.00  0.00    +0.029 C 
ATOM     16  C5  UNL     1      -9.639  20.026  10.984  0.00  0.00    +0.029 C 
ENDBRANCH  13  14
ENDBRANCH   4  13
TORSDOF 4
ENDMDL
MODEL 5
REMARK minimizedAffinity -4.50278711
REMARK minimizedRMSD -1
REMARK  Name = /home/tchapet/Post-Doc/ARTICLES-DOSSIERS-DES-ARTICLES-EN-REDACTION/NOUVELS-AXES-DE-RECHERCHE-A-REGARDER-URGEMMENT/ARTICLES-EN-REDACTIONS/ARTICLE_MVOTO/Paper2_Sensors_ActuatorsB/docking_rerun/ligands/20778.pdb
REMARK  7 active torsions:
REMARK  status: ('A' for Active; 'I' for Inactive)
REMARK    1  A    between atoms: N2_2  and  N3_3
REMARK    2  A    between atoms: C2_6  and  N5_7
REMARK    3  A    between atoms: N5_7  and  C3_8
REMARK    4  A    between atoms: C3_8  and  C4_9
REMARK    5  A    between atoms: C3_8  and  C5_10
REMARK    6  A    between atoms: C6_12  and  S1_14
REMARK    7  A    between atoms: S1_14  and  C7_15
REMARK                            x       y       z     vdW  Elec       q    Type
REMARK                         _______ _______ _______ _____ _____    ______ ____
ROOT
ATOM      1  N3  UNL     1     -14.278  21.757   8.016  0.00  0.00    -0.126 N 
ATOM      2  C1  UNL     1     -13.657  22.235   9.211  0.00  0.00    +0.252 A 
ATOM      3  N4  UNL     1     -14.006  23.446   9.716  0.00  0.00    -0.178 NA
ATOM      4  C2  UNL     1     -13.423  23.911  10.850  0.00  0.00    +0.240 A 
ATOM      5  N6  UNL     1     -12.487  23.156  11.480  0.00  0.00    -0.187 NA
ATOM      6  C6  UNL     1     -12.135  21.945  10.982  0.00  0.00    +0.194 A 
ATOM      7  N7  UNL     1     -12.719  21.485   9.848  0.00  0.00    -0.187 NA
ATOM      8  H1  UNL     1     -14.997  22.340   7.534  0.00  0.00    +0.193 HD
ENDROOT
BRANCH   1  10
ATOM      9  N1  UNL     1     -13.672  19.551   7.066  0.00  0.00    -0.017 NA
ATOM     10  N2  UNL     1     -13.946  20.549   7.496  0.00  0.00    -0.126 NA
ENDBRANCH   1  10
BRANCH   6  11
ATOM     11  S1  UNL     1     -10.904  20.956  11.821  0.00  0.00    -0.089 S 
ATOM     12  C7  UNL     1      -9.887  20.752  10.327  0.00  0.00    +0.093 C 
ENDBRANCH   6  11
BRANCH   4  13
ATOM     13  N5  UNL     1     -13.812  25.191  11.366  0.00  0.00    -0.213 NA
BRANCH  13  14
ATOM     14  C3  UNL     1     -13.032  26.429  11.306  0.00  0.00    +0.091 C 
ATOM     15  C4  UNL     1     -13.939  27.648  11.103  0.00  0.00    +0.029 C 
ATOM     16  C5  UNL     1     -12.138  26.583  12.540  0.00  0.00    +0.029 C 
ENDBRANCH  13  14
ENDBRANCH   4  13
TORSDOF 4
ENDMDL
MODEL 6
REMARK minimizedAffinity -4.48730993
REMARK minimizedRMSD -1
REMARK  Name = /home/tchapet/Post-Doc/ARTICLES-DOSSIERS-DES-ARTICLES-EN-REDACTION/NOUVELS-AXES-DE-RECHERCHE-A-REGARDER-URGEMMENT/ARTICLES-EN-REDACTIONS/ARTICLE_MVOTO/Paper2_Sensors_ActuatorsB/docking_rerun/ligands/20778.pdb
REMARK  7 active torsions:
REMARK  status: ('A' for Active; 'I' for Inactive)
REMARK    1  A    between atoms: N2_2  and  N3_3
REMARK    2  A    between atoms: C2_6  and  N5_7
REMARK    3  A    between atoms: N5_7  and  C3_8
REMARK    4  A    between atoms: C3_8  and  C4_9
REMARK    5  A    between atoms: C3_8  and  C5_10
REMARK    6  A    between atoms: C6_12  and  S1_14
REMARK    7  A    between atoms: S1_14  and  C7_15
REMARK                            x       y       z     vdW  Elec       q    Type
REMARK                         _______ _______ _______ _____ _____    ______ ____
ROOT
ATOM      1  N3  UNL     1       2.111  26.365  30.344  0.00  0.00    -0.126 N 
ATOM      2  C1  UNL     1       3.096  26.424  31.377  0.00  0.00    +0.252 A 
ATOM      3  N4  UNL     1       3.746  27.590  31.625  0.00  0.00    -0.178 NA
ATOM      4  C2  UNL     1       4.683  27.658  32.604  0.00  0.00    +0.240 A 
ATOM      5  N6  UNL     1       4.969  26.551  33.336  0.00  0.00    -0.187 NA
ATOM      6  C6  UNL     1       4.322  25.385  33.094  0.00  0.00    +0.194 A 
ATOM      7  N7  UNL     1       3.386  25.320  32.115  0.00  0.00    -0.187 NA
ATOM      8  H1  UNL     1       1.894  27.218  29.781  0.00  0.00    +0.193 HD
ENDROOT
BRANCH   1  10
ATOM      9  N1  UNL     1       0.900  24.258  29.862  0.00  0.00    -0.017 NA
ATOM     10  N2  UNL     1       1.447  25.211  30.080  0.00  0.00    -0.126 NA
ENDBRANCH   1  10
BRANCH   6  11
ATOM     11  S1  UNL     1       4.702  23.933  34.067  0.00  0.00    -0.089 S 
ATOM     12  C7  UNL     1       4.460  22.795  32.670  0.00  0.00    +0.093 C 
ENDBRANCH   6  11
BRANCH   4  13
ATOM     13  N5  UNL     1       5.352  28.902  32.850  0.00  0.00    -0.213 NA
BRANCH  13  14
ATOM     14  C3  UNL     1       5.465  30.031  31.923  0.00  0.00    +0.091 C 
ATOM     15  C4  UNL     1       4.528  31.175  32.323  0.00  0.00    +0.029 C 
ATOM     16  C5  UNL     1       6.917  30.501  31.793  0.00  0.00    +0.029 C 
ENDBRANCH  13  14
ENDBRANCH   4  13
TORSDOF 4
ENDMDL
MODEL 7
REMARK minimizedAffinity -4.4723587
REMARK minimizedRMSD -1
REMARK  Name = /home/tchapet/Post-Doc/ARTICLES-DOSSIERS-DES-ARTICLES-EN-REDACTION/NOUVELS-AXES-DE-RECHERCHE-A-REGARDER-URGEMMENT/ARTICLES-EN-REDACTIONS/ARTICLE_MVOTO/Paper2_Sensors_ActuatorsB/docking_rerun/ligands/20778.pdb
REMARK  7 active torsions:
REMARK  status: ('A' for Active; 'I' for Inactive)
REMARK    1  A    between atoms: N2_2  and  N3_3
REMARK    2  A    between atoms: C2_6  and  N5_7
REMARK    3  A    between atoms: N5_7  and  C3_8
REMARK    4  A    between atoms: C3_8  and  C4_9
REMARK    5  A    between atoms: C3_8  and  C5_10
REMARK    6  A    between atoms: C6_12  and  S1_14
REMARK    7  A    between atoms: S1_14  and  C7_15
REMARK                            x       y       z     vdW  Elec       q    Type
REMARK                         _______ _______ _______ _____ _____    ______ ____
ROOT
ATOM      1  N3  UNL     1     -17.798  23.673  40.611  0.00  0.00    -0.126 N 
ATOM      2  C1  UNL     1     -17.046  23.425  41.800  0.00  0.00    +0.252 A 
ATOM      3  N4  UNL     1     -16.674  24.463  42.593  0.00  0.00    -0.178 NA
ATOM      4  C2  UNL     1     -15.959  24.239  43.725  0.00  0.00    +0.240 A 
ATOM      5  N6  UNL     1     -15.618  22.969  44.062  0.00  0.00    -0.187 NA
ATOM      6  C6  UNL     1     -15.988  21.929  43.276  0.00  0.00    +0.194 A 
ATOM      7  N7  UNL     1     -16.701  22.157  42.144  0.00  0.00    -0.187 NA
ATOM      8  H1  UNL     1     -18.059  24.651  40.354  0.00  0.00    +0.193 HD
ENDROOT
BRANCH   1  10
ATOM      9  N1  UNL     1     -18.500  21.808  39.140  0.00  0.00    -0.017 NA
ATOM     10  N2  UNL     1     -18.183  22.652  39.805  0.00  0.00    -0.126 NA
ENDBRANCH   1  10
BRANCH   6  11
ATOM     11  S1  UNL     1     -15.537  20.260  43.730  0.00  0.00    -0.089 S 
ATOM     12  C7  UNL     1     -13.984  20.775  44.525  0.00  0.00    +0.093 C 
ENDBRANCH   6  11
BRANCH   4  13
ATOM     13  N5  UNL     1     -15.582  25.351  44.548  0.00  0.00    -0.213 NA
BRANCH  13  14
ATOM     14  C3  UNL     1     -16.423  26.027  45.540  0.00  0.00    +0.091 C 
ATOM     15  C4  UNL     1     -15.576  26.644  46.658  0.00  0.00    +0.029 C 
ATOM     16  C5  UNL     1     -17.338  27.063  44.879  0.00  0.00    +0.029 C 
ENDBRANCH  13  14
ENDBRANCH   4  13
TORSDOF 4
ENDMDL
MODEL 8
REMARK minimizedAffinity -4.46096945
REMARK minimizedRMSD -1
REMARK  Name = /home/tchapet/Post-Doc/ARTICLES-DOSSIERS-DES-ARTICLES-EN-REDACTION/NOUVELS-AXES-DE-RECHERCHE-A-REGARDER-URGEMMENT/ARTICLES-EN-REDACTIONS/ARTICLE_MVOTO/Paper2_Sensors_ActuatorsB/docking_rerun/ligands/20778.pdb
REMARK  7 active torsions:
REMARK  status: ('A' for Active; 'I' for Inactive)
REMARK    1  A    between atoms: N2_2  and  N3_3
REMARK    2  A    between atoms: C2_6  and  N5_7
REMARK    3  A    between atoms: N5_7  and  C3_8
REMARK    4  A    between atoms: C3_8  and  C4_9
REMARK    5  A    between atoms: C3_8  and  C5_10
REMARK    6  A    between atoms: C6_12  and  S1_14
REMARK    7  A    between atoms: S1_14  and  C7_15
REMARK                            x       y       z     vdW  Elec       q    Type
REMARK                         _______ _______ _______ _____ _____    ______ ____
ROOT
ATOM      1  N3  UNL     1     -16.327  20.142  39.329  0.00  0.00    -0.126 N 
ATOM      2  C1  UNL     1     -15.890  19.933  40.674  0.00  0.00    +0.252 A 
ATOM      3  N4  UNL     1     -15.025  18.924  40.954  0.00  0.00    -0.178 NA
ATOM      4  C2  UNL     1     -14.603  18.716  42.226  0.00  0.00    +0.240 A 
ATOM      5  N6  UNL     1     -15.049  19.524  43.221  0.00  0.00    -0.187 NA
ATOM      6  C6  UNL     1     -15.910  20.535  42.947  0.00  0.00    +0.194 A 
ATOM      7  N7  UNL     1     -16.331  20.739  41.674  0.00  0.00    -0.187 NA
ATOM      8  H1  UNL     1     -15.983  19.517  38.566  0.00  0.00    +0.193 HD
ENDROOT
BRANCH   1  10
ATOM      9  N1  UNL     1     -17.899  21.974  38.776  0.00  0.00    -0.017 NA
ATOM     10  N2  UNL     1     -17.188  21.145  39.026  0.00  0.00    -0.126 NA
ENDBRANCH   1  10
BRANCH   6  11
ATOM     11  S1  UNL     1     -16.489  21.598  44.264  0.00  0.00    -0.089 S 
ATOM     12  C7  UNL     1     -16.080  23.125  43.364  0.00  0.00    +0.093 C 
ENDBRANCH   6  11
BRANCH   4  13
ATOM     13  N5  UNL     1     -13.687  17.646  42.496  0.00  0.00    -0.213 NA
BRANCH  13  14
ATOM     14  C3  UNL     1     -12.354  17.768  43.092  0.00  0.00    +0.091 C 
ATOM     15  C4  UNL     1     -11.610  16.429  43.070  0.00  0.00    +0.029 C 
ATOM     16  C5  UNL     1     -11.544  18.882  42.420  0.00  0.00    +0.029 C 
ENDBRANCH  13  14
ENDBRANCH   4  13
TORSDOF 4
ENDMDL
MODEL 9
REMARK minimizedAffinity -4.43321705
REMARK minimizedRMSD -1
REMARK  Name = /home/tchapet/Post-Doc/ARTICLES-DOSSIERS-DES-ARTICLES-EN-REDACTION/NOUVELS-AXES-DE-RECHERCHE-A-REGARDER-URGEMMENT/ARTICLES-EN-REDACTIONS/ARTICLE_MVOTO/Paper2_Sensors_ActuatorsB/docking_rerun/ligands/20778.pdb
REMARK  7 active torsions:
REMARK  status: ('A' for Active; 'I' for Inactive)
REMARK    1  A    between atoms: N2_2  and  N3_3
REMARK    2  A    between atoms: C2_6  and  N5_7
REMARK    3  A    between atoms: N5_7  and  C3_8
REMARK    4  A    between atoms: C3_8  and  C4_9
REMARK    5  A    between atoms: C3_8  and  C5_10
REMARK    6  A    between atoms: C6_12  and  S1_14
REMARK    7  A    between atoms: S1_14  and  C7_15
REMARK                            x       y       z     vdW  Elec       q    Type
REMARK                         _______ _______ _______ _____ _____    ______ ____
ROOT
ATOM      1  N3  UNL     1       6.226  17.828  45.567  0.00  0.00    -0.126 N 
ATOM      2  C1  UNL     1       6.944  17.548  44.364  0.00  0.00    +0.252 A 
ATOM      3  N4  UNL     1       7.597  18.549  43.718  0.00  0.00    -0.178 NA
ATOM      4  C2  UNL     1       8.282  18.296  42.575  0.00  0.00    +0.240 A 
ATOM      5  N6  UNL     1       8.313  17.033  42.078  0.00  0.00    -0.187 NA
ATOM      6  C6  UNL     1       7.666  16.029  42.719  0.00  0.00    +0.194 A 
ATOM      7  N7  UNL     1       6.981  16.286  43.861  0.00  0.00    -0.187 NA
ATOM      8  H1  UNL     1       6.203  18.800  45.946  0.00  0.00    +0.193 HD
ENDROOT
BRANCH   1  10
ATOM      9  N1  UNL     1       5.028  16.029  46.777  0.00  0.00    -0.017 NA
ATOM     10  N2  UNL     1       5.569  16.843  46.230  0.00  0.00    -0.126 NA
ENDBRANCH   1  10
BRANCH   6  11
ATOM     11  S1  UNL     1       7.717  14.368  42.059  0.00  0.00    -0.089 S 
ATOM     12  C7  UNL     1       7.779  13.595  43.704  0.00  0.00    +0.093 C 
ENDBRANCH   6  11
BRANCH   4  13
ATOM     13  N5  UNL     1       8.966  19.369  41.914  0.00  0.00    -0.213 NA
BRANCH  13  14
ATOM     14  C3  UNL     1       9.592  19.321  40.590  0.00  0.00    +0.091 C 
ATOM     15  C4  UNL     1       8.718  20.009  39.537  0.00  0.00    +0.029 C 
ATOM     16  C5  UNL     1      11.009  19.902  40.624  0.00  0.00    +0.029 C 
ENDBRANCH  13  14
ENDBRANCH   4  13
TORSDOF 4
ENDMDL
