MODEL 1
REMARK minimizedAffinity -5.79227114
REMARK minimizedRMSD -1
REMARK  Name = /home/tchapet/Post-Doc/ARTICLES-DOSSIERS-DES-ARTICLES-EN-REDACTION/NOUVELS-AXES-DE-RECHERCHE-A-REGARDER-URGEMMENT/ARTICLES-EN-REDACTIONS/ARTICLE_MVOTO/Paper2_Sensors_ActuatorsB/docking_rerun/ligands/4550.pdb
REMARK  4 active torsions:
REMARK  status: ('A' for Active; 'I' for Inactive)
REMARK    1  A    between atoms: N1_2  and  C1_3
REMARK    2  A    between atoms: C4_6  and  N2_7
REMARK    3  A    between atoms: N2_7  and  O2_8
REMARK    4  A    between atoms: N2_7  and  O3_9
REMARK                            x       y       z     vdW  Elec       q    Type
REMARK                         _______ _______ _______ _____ _____    ______ ____
ROOT
ATOM      1  C1  UNL     1      12.076 -15.302  -5.078  0.00  0.00    +0.180 C 
ATOM      2  C2  UNL     1      12.379 -14.740  -3.922  0.00  0.00    +0.034 A 
ATOM      3  C3  UNL     1      11.874 -15.015  -2.658  0.00  0.00    +0.043 A 
ATOM      4  C4  UNL     1      12.350 -14.276  -1.557  0.00  0.00    +0.099 A 
ATOM      5  C5  UNL     1      13.371 -13.290  -1.747  0.00  0.00    -0.014 A 
ATOM      6  C6  UNL     1      13.847 -13.008  -3.064  0.00  0.00    -0.018 A 
ATOM      7  C7  UNL     1      13.339 -13.762  -4.129  0.00  0.00    +0.070 A 
ATOM      8  N3  UNL     1      13.700 -13.644  -5.372  0.00  0.00    -0.174 NA
ATOM      9  C8  UNL     1      12.912 -14.620  -6.046  0.00  0.00    +0.290 C 
ATOM     10  O4  UNL     1      12.955 -14.836  -7.285  0.00  0.00    -0.266 OA
ATOM     11  C9  UNL     1      14.955 -12.009  -3.324  0.00  0.00    +0.037 C 
ATOM     12  C10 UNL     1      15.182 -11.055  -2.153  0.00  0.00    +0.005 C 
ATOM     13  C11 UNL     1      15.259 -11.837  -0.847  0.00  0.00    +0.005 C 
ATOM     14  C12 UNL     1      13.920 -12.519  -0.560  0.00  0.00    +0.038 C 
ENDROOT
BRANCH   1  16
ATOM     15  O1  UNL     1      11.508 -17.537  -5.403  0.00  0.00    -0.143 OA
ATOM     16  N1  UNL     1      11.134 -16.352  -5.299  0.00  0.00    -0.025 NA
ENDBRANCH   1  16
BRANCH   4  17
ATOM     17  N2  UNL     1      11.784 -14.544  -0.258  0.00  0.00    -0.128 N 
BRANCH  17  18
ATOM     18  O2  UNL     1      10.513 -14.177   0.040  0.00  0.00    -0.262 OA
ATOM     19  H2  UNL     1       9.955 -14.948  -0.238  0.00  0.00    +0.247 HD
ENDBRANCH  17  18
BRANCH  17  20
ATOM     20  O3  UNL     1      12.504 -15.218   0.672  0.00  0.00    -0.262 OA
ATOM     21  H3  UNL     1      12.256 -16.170   0.547  0.00  0.00    +0.247 HD
ENDBRANCH  17  20
ENDBRANCH   4  17
TORSDOF 4
ENDMDL
MODEL 2
REMARK minimizedAffinity -5.72236395
REMARK minimizedRMSD -1
REMARK  Name = /home/tchapet/Post-Doc/ARTICLES-DOSSIERS-DES-ARTICLES-EN-REDACTION/NOUVELS-AXES-DE-RECHERCHE-A-REGARDER-URGEMMENT/ARTICLES-EN-REDACTIONS/ARTICLE_MVOTO/Paper2_Sensors_ActuatorsB/docking_rerun/ligands/4550.pdb
REMARK  4 active torsions:
REMARK  status: ('A' for Active; 'I' for Inactive)
REMARK    1  A    between atoms: N1_2  and  C1_3
REMARK    2  A    between atoms: C4_6  and  N2_7
REMARK    3  A    between atoms: N2_7  and  O2_8
REMARK    4  A    between atoms: N2_7  and  O3_9
REMARK                            x       y       z     vdW  Elec       q    Type
REMARK                         _______ _______ _______ _____ _____    ______ ____
ROOT
ATOM      1  C1  UNL     1      31.267 -17.817  11.682  0.00  0.00    +0.180 C 
ATOM      2  C2  UNL     1      30.271 -17.238  11.036  0.00  0.00    +0.034 A 
ATOM      3  C3  UNL     1      29.089 -16.714  11.543  0.00  0.00    +0.043 A 
ATOM      4  C4  UNL     1      28.160 -16.140  10.653  0.00  0.00    +0.099 A 
ATOM      5  C5  UNL     1      28.464 -16.066   9.255  0.00  0.00    -0.014 A 
ATOM      6  C6  UNL     1      29.673 -16.643   8.761  0.00  0.00    -0.018 A 
ATOM      7  C7  UNL     1      30.563 -17.210   9.682  0.00  0.00    +0.070 A 
ATOM      8  N3  UNL     1      31.713 -17.739   9.387  0.00  0.00    -0.174 NA
ATOM      9  C8  UNL     1      32.225 -18.157  10.648  0.00  0.00    +0.290 C 
ATOM     10  O4  UNL     1      33.334 -18.727  10.811  0.00  0.00    -0.266 OA
ATOM     11  C9  UNL     1      30.070 -16.558   7.302  0.00  0.00    +0.037 C 
ATOM     12  C10 UNL     1      28.896 -16.214   6.386  0.00  0.00    +0.005 C 
ATOM     13  C11 UNL     1      28.117 -15.033   6.953  0.00  0.00    +0.005 C 
ATOM     14  C12 UNL     1      27.487 -15.411   8.295  0.00  0.00    +0.038 C 
ENDROOT
BRANCH   1  16
ATOM     15  O1  UNL     1      31.066 -19.150  13.582  0.00  0.00    -0.143 OA
ATOM     16  N1  UNL     1      31.360 -18.042  13.089  0.00  0.00    -0.025 NA
ENDBRANCH   1  16
BRANCH   4  17
ATOM     17  N2  UNL     1      26.919 -15.640  11.189  0.00  0.00    -0.128 N 
BRANCH  17  18
ATOM     18  O2  UNL     1      25.731 -16.175  10.816  0.00  0.00    -0.262 OA
ATOM     19  H2  UNL     1      25.576 -16.919  11.453  0.00  0.00    +0.247 HD
ENDBRANCH  17  18
BRANCH  17  20
ATOM     20  O3  UNL     1      26.928 -14.655  12.120  0.00  0.00    -0.262 OA
ATOM     21  H3  UNL     1      26.927 -15.127  12.992  0.00  0.00    +0.247 HD
ENDBRANCH  17  20
ENDBRANCH   4  17
TORSDOF 4
ENDMDL
MODEL 3
REMARK minimizedAffinity -5.49123383
REMARK minimizedRMSD -1
REMARK  Name = /home/tchapet/Post-Doc/ARTICLES-DOSSIERS-DES-ARTICLES-EN-REDACTION/NOUVELS-AXES-DE-RECHERCHE-A-REGARDER-URGEMMENT/ARTICLES-EN-REDACTIONS/ARTICLE_MVOTO/Paper2_Sensors_ActuatorsB/docking_rerun/ligands/4550.pdb
REMARK  4 active torsions:
REMARK  status: ('A' for Active; 'I' for Inactive)
REMARK    1  A    between atoms: N1_2  and  C1_3
REMARK    2  A    between atoms: C4_6  and  N2_7
REMARK    3  A    between atoms: N2_7  and  O2_8
REMARK    4  A    between atoms: N2_7  and  O3_9
REMARK                            x       y       z     vdW  Elec       q    Type
REMARK                         _______ _______ _______ _____ _____    ______ ____
ROOT
ATOM      1  C1  UNL     1       7.810 -11.411  28.569  0.00  0.00    +0.180 C 
ATOM      2  C2  UNL     1       7.245 -12.429  27.946  0.00  0.00    +0.034 A 
ATOM      3  C3  UNL     1       5.896 -12.739  27.826  0.00  0.00    +0.043 A 
ATOM      4  C4  UNL     1       5.523 -13.892  27.107  0.00  0.00    +0.099 A 
ATOM      5  C5  UNL     1       6.527 -14.697  26.478  0.00  0.00    -0.014 A 
ATOM      6  C6  UNL     1       7.907 -14.369  26.647  0.00  0.00    -0.018 A 
ATOM      7  C7  UNL     1       8.231 -13.218  27.377  0.00  0.00    +0.070 A 
ATOM      8  N3  UNL     1       9.435 -12.775  27.584  0.00  0.00    -0.174 NA
ATOM      9  C8  UNL     1       9.231 -11.597  28.358  0.00  0.00    +0.290 C 
ATOM     10  O4  UNL     1      10.156 -10.855  28.778  0.00  0.00    -0.266 OA
ATOM     11  C9  UNL     1       9.011 -15.154  25.972  0.00  0.00    +0.037 C 
ATOM     12  C10 UNL     1       8.553 -16.530  25.491  0.00  0.00    +0.005 C 
ATOM     13  C11 UNL     1       7.237 -16.408  24.731  0.00  0.00    +0.005 C 
ATOM     14  C12 UNL     1       6.131 -15.917  25.666  0.00  0.00    +0.038 C 
ENDROOT
BRANCH   1  16
ATOM     15  O1  UNL     1       6.768  -9.332  28.697  0.00  0.00    -0.143 OA
ATOM     16  N1  UNL     1       7.145 -10.367  29.282  0.00  0.00    -0.025 NA
ENDBRANCH   1  16
BRANCH   4  17
ATOM     17  N2  UNL     1       4.123 -14.226  27.028  0.00  0.00    -0.128 N 
BRANCH  17  18
ATOM     18  O2  UNL     1       3.422 -14.567  28.137  0.00  0.00    -0.262 OA
ATOM     19  H2  UNL     1       3.082 -13.708  28.497  0.00  0.00    +0.247 HD
ENDBRANCH  17  18
BRANCH  17  20
ATOM     20  O3  UNL     1       3.471 -14.149  25.842  0.00  0.00    -0.262 OA
ATOM     21  H3  UNL     1       3.089 -13.235  25.817  0.00  0.00    +0.247 HD
ENDBRANCH  17  20
ENDBRANCH   4  17
TORSDOF 4
ENDMDL
MODEL 4
REMARK minimizedAffinity -5.43581486
REMARK minimizedRMSD -1
REMARK  Name = /home/tchapet/Post-Doc/ARTICLES-DOSSIERS-DES-ARTICLES-EN-REDACTION/NOUVELS-AXES-DE-RECHERCHE-A-REGARDER-URGEMMENT/ARTICLES-EN-REDACTIONS/ARTICLE_MVOTO/Paper2_Sensors_ActuatorsB/docking_rerun/ligands/4550.pdb
REMARK  4 active torsions:
REMARK  status: ('A' for Active; 'I' for Inactive)
REMARK    1  A    between atoms: N1_2  and  C1_3
REMARK    2  A    between atoms: C4_6  and  N2_7
REMARK    3  A    between atoms: N2_7  and  O2_8
REMARK    4  A    between atoms: N2_7  and  O3_9
REMARK                            x       y       z     vdW  Elec       q    Type
REMARK                         _______ _______ _______ _____ _____    ______ ____
ROOT
ATOM      1  C1  UNL     1      -1.242  -2.049   2.284  0.00  0.00    +0.180 C 
ATOM      2  C2  UNL     1      -0.271  -2.940   2.381  0.00  0.00    +0.034 A 
ATOM      3  C3  UNL     1      -0.301  -4.205   2.954  0.00  0.00    +0.043 A 
ATOM      4  C4  UNL     1       0.871  -4.986   2.944  0.00  0.00    +0.099 A 
ATOM      5  C5  UNL     1       2.055  -4.488   2.309  0.00  0.00    -0.014 A 
ATOM      6  C6  UNL     1       2.063  -3.171   1.758  0.00  0.00    -0.018 A 
ATOM      7  C7  UNL     1       0.876  -2.427   1.798  0.00  0.00    +0.070 A 
ATOM      8  N3  UNL     1       0.721  -1.234   1.307  0.00  0.00    -0.174 NA
ATOM      9  C8  UNL     1      -0.640  -0.927   1.593  0.00  0.00    +0.290 C 
ATOM     10  O4  UNL     1      -1.204   0.154   1.281  0.00  0.00    -0.266 OA
ATOM     11  C9  UNL     1       3.268  -2.605   1.036  0.00  0.00    +0.037 C 
ATOM     12  C10 UNL     1       4.556  -3.369   1.342  0.00  0.00    +0.005 C 
ATOM     13  C11 UNL     1       4.319  -4.869   1.208  0.00  0.00    +0.005 C 
ATOM     14  C12 UNL     1       3.310  -5.341   2.257  0.00  0.00    +0.038 C 
ENDROOT
BRANCH   1  16
ATOM     15  O1  UNL     1      -3.536  -2.291   1.961  0.00  0.00    -0.143 OA
ATOM     16  N1  UNL     1      -2.582  -2.188   2.758  0.00  0.00    -0.025 NA
ENDBRANCH   1  16
BRANCH   4  17
ATOM     17  N2  UNL     1       0.837  -6.279   3.581  0.00  0.00    -0.128 N 
BRANCH  17  18
ATOM     18  O2  UNL     1       1.089  -6.412   4.906  0.00  0.00    -0.262 OA
ATOM     19  H2  UNL     1       0.207  -6.297   5.345  0.00  0.00    +0.247 HD
ENDBRANCH  17  18
BRANCH  17  20
ATOM     20  O3  UNL     1       0.497  -7.380   2.867  0.00  0.00    -0.262 OA
ATOM     21  H3  UNL     1      -0.482  -7.473   2.990  0.00  0.00    +0.247 HD
ENDBRANCH  17  20
ENDBRANCH   4  17
TORSDOF 4
ENDMDL
MODEL 5
REMARK minimizedAffinity -5.3804245
REMARK minimizedRMSD -1
REMARK  Name = /home/tchapet/Post-Doc/ARTICLES-DOSSIERS-DES-ARTICLES-EN-REDACTION/NOUVELS-AXES-DE-RECHERCHE-A-REGARDER-URGEMMENT/ARTICLES-EN-REDACTIONS/ARTICLE_MVOTO/Paper2_Sensors_ActuatorsB/docking_rerun/ligands/4550.pdb
REMARK  4 active torsions:
REMARK  status: ('A' for Active; 'I' for Inactive)
REMARK    1  A    between atoms: N1_2  and  C1_3
REMARK    2  A    between atoms: C4_6  and  N2_7
REMARK    3  A    between atoms: N2_7  and  O2_8
REMARK    4  A    between atoms: N2_7  and  O3_9
REMARK                            x       y       z     vdW  Elec       q    Type
REMARK                         _______ _______ _______ _____ _____    ______ ____
ROOT
ATOM      1  C1  UNL     1      10.833 -12.252  27.853  0.00  0.00    +0.180 C 
ATOM      2  C2  UNL     1       9.524 -12.428  27.832  0.00  0.00    +0.034 A 
ATOM      3  C3  UNL     1       8.529 -11.652  28.414  0.00  0.00    +0.043 A 
ATOM      4  C4  UNL     1       7.184 -12.040  28.259  0.00  0.00    +0.099 A 
ATOM      5  C5  UNL     1       6.859 -13.193  27.474  0.00  0.00    -0.014 A 
ATOM      6  C6  UNL     1       7.906 -13.987  26.915  0.00  0.00    -0.018 A 
ATOM      7  C7  UNL     1       9.229 -13.568  27.101  0.00  0.00    +0.070 A 
ATOM      8  N3  UNL     1      10.281 -14.165  26.625  0.00  0.00    -0.174 NA
ATOM      9  C8  UNL     1      11.362 -13.358  27.080  0.00  0.00    +0.290 C 
ATOM     10  O4  UNL     1      12.574 -13.591  26.835  0.00  0.00    -0.266 OA
ATOM     11  C9  UNL     1       7.626 -15.191  26.039  0.00  0.00    +0.037 C 
ATOM     12  C10 UNL     1       6.196 -15.710  26.183  0.00  0.00    +0.005 C 
ATOM     13  C11 UNL     1       5.208 -14.553  26.093  0.00  0.00    +0.005 C 
ATOM     14  C12 UNL     1       5.409 -13.593  27.267  0.00  0.00    +0.038 C 
ENDROOT
BRANCH   1  16
ATOM     15  O1  UNL     1      11.694 -10.090  27.938  0.00  0.00    -0.143 OA
ATOM     16  N1  UNL     1      11.545 -11.195  28.497  0.00  0.00    -0.025 NA
ENDBRANCH   1  16
BRANCH   4  17
ATOM     17  N2  UNL     1       6.166 -11.250  28.906  0.00  0.00    -0.128 N 
BRANCH  17  18
ATOM     18  O2  UNL     1       5.563 -10.223  28.260  0.00  0.00    -0.262 OA
ATOM     19  H2  UNL     1       4.789 -10.634  27.796  0.00  0.00    +0.247 HD
ENDBRANCH  17  18
BRANCH  17  20
ATOM     20  O3  UNL     1       5.758 -11.562  30.162  0.00  0.00    -0.262 OA
ATOM     21  H3  UNL     1       4.982 -12.166  30.036  0.00  0.00    +0.247 HD
ENDBRANCH  17  20
ENDBRANCH   4  17
TORSDOF 4
ENDMDL
MODEL 6
REMARK minimizedAffinity -5.37280607
REMARK minimizedRMSD -1
REMARK  Name = /home/tchapet/Post-Doc/ARTICLES-DOSSIERS-DES-ARTICLES-EN-REDACTION/NOUVELS-AXES-DE-RECHERCHE-A-REGARDER-URGEMMENT/ARTICLES-EN-REDACTIONS/ARTICLE_MVOTO/Paper2_Sensors_ActuatorsB/docking_rerun/ligands/4550.pdb
REMARK  4 active torsions:
REMARK  status: ('A' for Active; 'I' for Inactive)
REMARK    1  A    between atoms: N1_2  and  C1_3
REMARK    2  A    between atoms: C4_6  and  N2_7
REMARK    3  A    between atoms: N2_7  and  O2_8
REMARK    4  A    between atoms: N2_7  and  O3_9
REMARK                            x       y       z     vdW  Elec       q    Type
REMARK                         _______ _______ _______ _____ _____    ______ ____
ROOT
ATOM      1  C1  UNL     1       4.697  -2.062   0.184  0.00  0.00    +0.180 C 
ATOM      2  C2  UNL     1       3.500  -1.898   0.716  0.00  0.00    +0.034 A 
ATOM      3  C3  UNL     1       2.779  -0.726   0.899  0.00  0.00    +0.043 A 
ATOM      4  C4  UNL     1       1.506  -0.794   1.499  0.00  0.00    +0.099 A 
ATOM      5  C5  UNL     1       0.958  -2.065   1.868  0.00  0.00    -0.014 A 
ATOM      6  C6  UNL     1       1.737  -3.249   1.696  0.00  0.00    -0.018 A 
ATOM      7  C7  UNL     1       3.001  -3.132   1.103  0.00  0.00    +0.070 A 
ATOM      8  N3  UNL     1       3.806  -4.120   0.850  0.00  0.00    -0.174 NA
ATOM      9  C8  UNL     1       4.934  -3.491   0.251  0.00  0.00    +0.290 C 
ATOM     10  O4  UNL     1       5.959  -4.101  -0.149  0.00  0.00    -0.266 OA
ATOM     11  C9  UNL     1       1.198  -4.625   2.025  0.00  0.00    +0.037 C 
ATOM     12  C10 UNL     1      -0.027  -4.580   2.938  0.00  0.00    +0.005 C 
ATOM     13  C11 UNL     1      -1.030  -3.557   2.418  0.00  0.00    +0.005 C 
ATOM     14  C12 UNL     1      -0.430  -2.151   2.476  0.00  0.00    +0.038 C 
ENDROOT
BRANCH   1  16
ATOM     15  O1  UNL     1       5.505  -0.729  -1.546  0.00  0.00    -0.143 OA
ATOM     16  N1  UNL     1       5.549  -1.043  -0.340  0.00  0.00    -0.025 NA
ENDBRANCH   1  16
BRANCH   4  17
ATOM     17  N2  UNL     1       0.789   0.437   1.723  0.00  0.00    -0.128 N 
BRANCH  17  18
ATOM     18  O2  UNL     1       1.287   1.398   2.539  0.00  0.00    -0.262 OA
ATOM     19  H2  UNL     1       1.849   1.964   1.951  0.00  0.00    +0.247 HD
ENDBRANCH  17  18
BRANCH  17  20
ATOM     20  O3  UNL     1      -0.378   0.672   1.073  0.00  0.00    -0.262 OA
ATOM     21  H3  UNL     1      -0.118   1.162   0.251  0.00  0.00    +0.247 HD
ENDBRANCH  17  20
ENDBRANCH   4  17
TORSDOF 4
ENDMDL
MODEL 7
REMARK minimizedAffinity -5.36054945
REMARK minimizedRMSD -1
REMARK  Name = /home/tchapet/Post-Doc/ARTICLES-DOSSIERS-DES-ARTICLES-EN-REDACTION/NOUVELS-AXES-DE-RECHERCHE-A-REGARDER-URGEMMENT/ARTICLES-EN-REDACTIONS/ARTICLE_MVOTO/Paper2_Sensors_ActuatorsB/docking_rerun/ligands/4550.pdb
REMARK  4 active torsions:
REMARK  status: ('A' for Active; 'I' for Inactive)
REMARK    1  A    between atoms: N1_2  and  C1_3
REMARK    2  A    between atoms: C4_6  and  N2_7
REMARK    3  A    between atoms: N2_7  and  O2_8
REMARK    4  A    between atoms: N2_7  and  O3_9
REMARK                            x       y       z     vdW  Elec       q    Type
REMARK                         _______ _______ _______ _____ _____    ______ ____
ROOT
ATOM      1  C1  UNL     1       3.401  -2.866   1.279  0.00  0.00    +0.180 C 
ATOM      2  C2  UNL     1       2.308  -3.385   1.810  0.00  0.00    +0.034 A 
ATOM      3  C3  UNL     1       2.159  -4.574   2.512  0.00  0.00    +0.043 A 
ATOM      4  C4  UNL     1       0.881  -4.929   2.988  0.00  0.00    +0.099 A 
ATOM      5  C5  UNL     1      -0.227  -4.045   2.784  0.00  0.00    -0.014 A 
ATOM      6  C6  UNL     1      -0.047  -2.845   2.031  0.00  0.00    -0.018 A 
ATOM      7  C7  UNL     1       1.239  -2.537   1.570  0.00  0.00    +0.070 A 
ATOM      8  N3  UNL     1       1.562  -1.468   0.905  0.00  0.00    -0.174 NA
ATOM      9  C8  UNL     1       2.960  -1.621   0.682  0.00  0.00    +0.290 C 
ATOM     10  O4  UNL     1       3.675  -0.791   0.062  0.00  0.00    -0.266 OA
ATOM     11  C9  UNL     1      -1.169  -1.850   1.819  0.00  0.00    +0.037 C 
ATOM     12  C10 UNL     1      -2.551  -2.447   2.085  0.00  0.00    +0.005 C 
ATOM     13  C11 UNL     1      -2.548  -3.203   3.408  0.00  0.00    +0.005 C 
ATOM     14  C12 UNL     1      -1.598  -4.400   3.331  0.00  0.00    +0.038 C 
ENDROOT
BRANCH   1  16
ATOM     15  O1  UNL     1       5.248  -3.857   0.264  0.00  0.00    -0.143 OA
ATOM     16  N1  UNL     1       4.715  -3.425   1.305  0.00  0.00    -0.025 NA
ENDBRANCH   1  16
BRANCH   4  17
ATOM     17  N2  UNL     1       0.733  -6.187   3.676  0.00  0.00    -0.128 N 
BRANCH  17  18
ATOM     18  O2  UNL     1       0.586  -7.346   2.989  0.00  0.00    -0.262 OA
ATOM     19  H2  UNL     1       1.511  -7.668   2.833  0.00  0.00    +0.247 HD
ENDBRANCH  17  18
BRANCH  17  20
ATOM     20  O3  UNL     1       0.794  -6.234   5.030  0.00  0.00    -0.262 OA
ATOM     21  H3  UNL     1       1.746  -6.417   5.238  0.00  0.00    +0.247 HD
ENDBRANCH  17  20
ENDBRANCH   4  17
TORSDOF 4
ENDMDL
MODEL 8
REMARK minimizedAffinity -5.35087299
REMARK minimizedRMSD -1
REMARK  Name = /home/tchapet/Post-Doc/ARTICLES-DOSSIERS-DES-ARTICLES-EN-REDACTION/NOUVELS-AXES-DE-RECHERCHE-A-REGARDER-URGEMMENT/ARTICLES-EN-REDACTIONS/ARTICLE_MVOTO/Paper2_Sensors_ActuatorsB/docking_rerun/ligands/4550.pdb
REMARK  4 active torsions:
REMARK  status: ('A' for Active; 'I' for Inactive)
REMARK    1  A    between atoms: N1_2  and  C1_3
REMARK    2  A    between atoms: C4_6  and  N2_7
REMARK    3  A    between atoms: N2_7  and  O2_8
REMARK    4  A    between atoms: N2_7  and  O3_9
REMARK                            x       y       z     vdW  Elec       q    Type
REMARK                         _______ _______ _______ _____ _____    ______ ____
ROOT
ATOM      1  C1  UNL     1      -9.555   3.403  17.404  0.00  0.00    +0.180 C 
ATOM      2  C2  UNL     1      -8.890   4.537  17.273  0.00  0.00    +0.034 A 
ATOM      3  C3  UNL     1      -8.363   5.113  16.124  0.00  0.00    +0.043 A 
ATOM      4  C4  UNL     1      -7.682   6.342  16.228  0.00  0.00    +0.099 A 
ATOM      5  C5  UNL     1      -7.580   6.997  17.498  0.00  0.00    -0.014 A 
ATOM      6  C6  UNL     1      -8.104   6.363  18.666  0.00  0.00    -0.018 A 
ATOM      7  C7  UNL     1      -8.767   5.138  18.516  0.00  0.00    +0.070 A 
ATOM      8  N3  UNL     1      -9.324   4.463  19.477  0.00  0.00    -0.174 NA
ATOM      9  C8  UNL     1      -9.856   3.317  18.819  0.00  0.00    +0.290 C 
ATOM     10  O4  UNL     1     -10.484   2.394  19.398  0.00  0.00    -0.266 OA
ATOM     11  C9  UNL     1      -8.067   7.024  20.028  0.00  0.00    +0.037 C 
ATOM     12  C10 UNL     1      -7.061   8.171  20.105  0.00  0.00    +0.005 C 
ATOM     13  C11 UNL     1      -7.223   9.092  18.901  0.00  0.00    +0.005 C 
ATOM     14  C12 UNL     1      -6.885   8.341  17.612  0.00  0.00    +0.038 C 
ENDROOT
BRANCH   1  16
ATOM     15  O1  UNL     1     -11.060   2.420  15.923  0.00  0.00    -0.143 OA
ATOM     16  N1  UNL     1      -9.895   2.485  16.364  0.00  0.00    -0.025 NA
ENDBRANCH   1  16
BRANCH   4  17
ATOM     17  N2  UNL     1      -7.102   6.906  15.034  0.00  0.00    -0.128 N 
BRANCH  17  18
ATOM     18  O2  UNL     1      -5.848   6.573  14.642  0.00  0.00    -0.262 OA
ATOM     19  H2  UNL     1      -5.965   5.771  14.071  0.00  0.00    +0.247 HD
ENDBRANCH  17  18
BRANCH  17  20
ATOM     20  O3  UNL     1      -7.831   7.742  14.254  0.00  0.00    -0.262 OA
ATOM     21  H3  UNL     1      -8.255   7.155  13.577  0.00  0.00    +0.247 HD
ENDBRANCH  17  20
ENDBRANCH   4  17
TORSDOF 4
ENDMDL
MODEL 9
REMARK minimizedAffinity -5.34046316
REMARK minimizedRMSD -1
REMARK  Name = /home/tchapet/Post-Doc/ARTICLES-DOSSIERS-DES-ARTICLES-EN-REDACTION/NOUVELS-AXES-DE-RECHERCHE-A-REGARDER-URGEMMENT/ARTICLES-EN-REDACTIONS/ARTICLE_MVOTO/Paper2_Sensors_ActuatorsB/docking_rerun/ligands/4550.pdb
REMARK  4 active torsions:
REMARK  status: ('A' for Active; 'I' for Inactive)
REMARK    1  A    between atoms: N1_2  and  C1_3
REMARK    2  A    between atoms: C4_6  and  N2_7
REMARK    3  A    between atoms: N2_7  and  O2_8
REMARK    4  A    between atoms: N2_7  and  O3_9
REMARK                            x       y       z     vdW  Elec       q    Type
REMARK                         _______ _______ _______ _____ _____    ______ ____
ROOT
ATOM      1  C1  UNL     1      -4.324 -15.376  18.475  0.00  0.00    +0.180 C 
ATOM      2  C2  UNL     1      -3.139 -14.793  18.477  0.00  0.00    +0.034 A 
ATOM      3  C3  UNL     1      -1.926 -15.282  18.945  0.00  0.00    +0.043 A 
ATOM      4  C4  UNL     1      -0.779 -14.471  18.844  0.00  0.00    +0.099 A 
ATOM      5  C5  UNL     1      -0.869 -13.181  18.226  0.00  0.00    -0.014 A 
ATOM      6  C6  UNL     1      -2.137 -12.695  17.784  0.00  0.00    -0.018 A 
ATOM      7  C7  UNL     1      -3.251 -13.533  17.912  0.00  0.00    +0.070 A 
ATOM      8  N3  UNL     1      -4.458 -13.243  17.525  0.00  0.00    -0.174 NA
ATOM      9  C8  UNL     1      -5.209 -14.404  17.865  0.00  0.00    +0.290 C 
ATOM     10  O4  UNL     1      -6.442 -14.538  17.656  0.00  0.00    -0.266 OA
ATOM     11  C9  UNL     1      -2.289 -11.360  17.085  0.00  0.00    +0.037 C 
ATOM     12  C10 UNL     1      -1.089 -10.438  17.297  0.00  0.00    +0.005 C 
ATOM     13  C11 UNL     1       0.207 -11.198  17.047  0.00  0.00    +0.005 C 
ATOM     14  C12 UNL     1       0.371 -12.318  18.075  0.00  0.00    +0.038 C 
ENDROOT
BRANCH   1  16
ATOM     15  O1  UNL     1      -4.932 -16.859  20.165  0.00  0.00    -0.143 OA
ATOM     16  N1  UNL     1      -4.638 -16.680  18.966  0.00  0.00    -0.025 NA
ENDBRANCH   1  16
BRANCH   4  17
ATOM     17  N2  UNL     1       0.464 -14.975  19.374  0.00  0.00    -0.128 N 
BRANCH  17  18
ATOM     18  O2  UNL     1       1.273 -15.765  18.626  0.00  0.00    -0.262 OA
ATOM     19  H2  UNL     1       1.865 -15.135  18.141  0.00  0.00    +0.247 HD
ENDBRANCH  17  18
BRANCH  17  20
ATOM     20  O3  UNL     1       0.867 -14.618  20.618  0.00  0.00    -0.262 OA
ATOM     21  H3  UNL     1       1.436 -13.817  20.483  0.00  0.00    +0.247 HD
ENDBRANCH  17  20
ENDBRANCH   4  17
TORSDOF 4
ENDMDL
