MODEL 1
REMARK minimizedAffinity -7.12308884
REMARK minimizedRMSD -1
REMARK  Name = /home/tchapet/Post-Doc/ARTICLES-DOSSIERS-DES-ARTICLES-EN-REDACTION/NOUVELS-AXES-DE-RECHERCHE-A-REGARDER-URGEMMENT/ARTICLES-EN-REDACTIONS/ARTICLE_MVOTO/Paper2_JCIM/docking_rerun/ligands/9168.pdb
REMARK  0 active torsions:
REMARK  status: ('A' for Active; 'I' for Inactive)
REMARK                            x       y       z     vdW  Elec       q    Type
REMARK                         _______ _______ _______ _____ _____    ______ ____
ROOT
ATOM      1  C1  UNL     1       5.776  -7.609  38.945  0.00  0.00    +0.001 A 
ATOM      2  C2  UNL     1       6.255  -6.402  39.446  0.00  0.00    +0.001 A 
ATOM      3  C3  UNL     1       6.519  -5.348  38.577  0.00  0.00    +0.008 A 
ATOM      4  C4  UNL     1       6.306  -5.492  37.196  0.00  0.00    -0.017 A 
ATOM      5  C5  UNL     1       5.819  -6.713  36.662  0.00  0.00    -0.010 A 
ATOM      6  C6  UNL     1       5.559  -7.770  37.575  0.00  0.00    +0.009 A 
ATOM      7  C7  UNL     1       5.614  -6.825  35.247  0.00  0.00    -0.010 A 
ATOM      8  C8  UNL     1       5.133  -8.008  34.661  0.00  0.00    +0.010 A 
ATOM      9  C9  UNL     1       4.935  -8.119  33.295  0.00  0.00    +0.010 A 
ATOM     10  C10 UNL     1       5.201  -7.053  32.413  0.00  0.00    -0.010 A 
ATOM     11  C11 UNL     1       5.690  -5.833  32.970  0.00  0.00    -0.010 A 
ATOM     12  C12 UNL     1       5.898  -5.716  34.390  0.00  0.00    -0.010 A 
ATOM     13  C13 UNL     1       6.382  -4.525  34.983  0.00  0.00    +0.010 A 
ATOM     14  C14 UNL     1       6.579  -4.421  36.353  0.00  0.00    +0.009 A 
ATOM     15  C15 UNL     1       5.957  -4.767  32.088  0.00  0.00    +0.010 A 
ATOM     16  C16 UNL     1       5.758  -4.878  30.722  0.00  0.00    +0.010 A 
ATOM     17  C17 UNL     1       5.278  -6.062  30.136  0.00  0.00    -0.010 A 
ATOM     18  C18 UNL     1       4.994  -7.170  30.993  0.00  0.00    -0.010 A 
ATOM     19  C19 UNL     1       4.510  -8.361  30.400  0.00  0.00    +0.010 A 
ATOM     20  C20 UNL     1       4.313  -8.466  29.030  0.00  0.00    +0.009 A 
ATOM     21  C21 UNL     1       4.585  -7.394  28.187  0.00  0.00    -0.017 A 
ATOM     22  C22 UNL     1       5.072  -6.172  28.721  0.00  0.00    -0.010 A 
ATOM     23  C23 UNL     1       5.333  -5.116  27.808  0.00  0.00    +0.009 A 
ATOM     24  C24 UNL     1       5.115  -5.277  26.438  0.00  0.00    +0.001 A 
ATOM     25  C25 UNL     1       4.637  -6.484  25.937  0.00  0.00    +0.001 A 
ATOM     26  C26 UNL     1       4.373  -7.539  26.805  0.00  0.00    +0.008 A 
ENDROOT
TORSDOF 0
ENDMDL
MODEL 2
REMARK minimizedAffinity -7.08436918
REMARK minimizedRMSD -1
REMARK  Name = /home/tchapet/Post-Doc/ARTICLES-DOSSIERS-DES-ARTICLES-EN-REDACTION/NOUVELS-AXES-DE-RECHERCHE-A-REGARDER-URGEMMENT/ARTICLES-EN-REDACTIONS/ARTICLE_MVOTO/Paper2_JCIM/docking_rerun/ligands/9168.pdb
REMARK  0 active torsions:
REMARK  status: ('A' for Active; 'I' for Inactive)
REMARK                            x       y       z     vdW  Elec       q    Type
REMARK                         _______ _______ _______ _____ _____    ______ ____
ROOT
ATOM      1  C1  UNL     1       4.993  -5.244  26.449  0.00  0.00    +0.001 A 
ATOM      2  C2  UNL     1       4.525  -6.451  25.941  0.00  0.00    +0.001 A 
ATOM      3  C3  UNL     1       4.283  -7.518  26.800  0.00  0.00    +0.008 A 
ATOM      4  C4  UNL     1       4.510  -7.386  28.181  0.00  0.00    -0.017 A 
ATOM      5  C5  UNL     1       4.987  -6.165  28.722  0.00  0.00    -0.010 A 
ATOM      6  C6  UNL     1       5.224  -5.095  27.819  0.00  0.00    +0.009 A 
ATOM      7  C7  UNL     1       5.207  -6.067  30.137  0.00  0.00    -0.010 A 
ATOM      8  C8  UNL     1       5.678  -4.884  30.730  0.00  0.00    +0.010 A 
ATOM      9  C9  UNL     1       5.892  -4.786  32.096  0.00  0.00    +0.010 A 
ATOM     10  C10 UNL     1       5.649  -5.865  32.968  0.00  0.00    -0.010 A 
ATOM     11  C11 UNL     1       5.169  -7.084  32.403  0.00  0.00    -0.010 A 
ATOM     12  C12 UNL     1       4.946  -7.188  30.984  0.00  0.00    -0.010 A 
ATOM     13  C13 UNL     1       4.471  -8.379  30.383  0.00  0.00    +0.010 A 
ATOM     14  C14 UNL     1       4.259  -8.470  29.015  0.00  0.00    +0.009 A 
ATOM     15  C15 UNL     1       4.925  -8.163  33.276  0.00  0.00    +0.010 A 
ATOM     16  C16 UNL     1       5.139  -8.066  34.641  0.00  0.00    +0.010 A 
ATOM     17  C17 UNL     1       5.610  -6.882  35.234  0.00  0.00    -0.010 A 
ATOM     18  C18 UNL     1       5.871  -5.761  34.387  0.00  0.00    -0.010 A 
ATOM     19  C19 UNL     1       6.346  -4.570  34.988  0.00  0.00    +0.010 A 
ATOM     20  C20 UNL     1       6.558  -4.479  36.356  0.00  0.00    +0.009 A 
ATOM     21  C21 UNL     1       6.307  -5.562  37.191  0.00  0.00    -0.017 A 
ATOM     22  C22 UNL     1       5.829  -6.784  36.649  0.00  0.00    -0.010 A 
ATOM     23  C23 UNL     1       5.594  -7.854  37.552  0.00  0.00    +0.009 A 
ATOM     24  C24 UNL     1       5.824  -7.705  38.922  0.00  0.00    +0.001 A 
ATOM     25  C25 UNL     1       6.293  -6.498  39.430  0.00  0.00    +0.001 A 
ATOM     26  C26 UNL     1       6.534  -5.431  38.571  0.00  0.00    +0.008 A 
ENDROOT
TORSDOF 0
ENDMDL
MODEL 3
REMARK minimizedAffinity -7.0301137
REMARK minimizedRMSD -1
REMARK  Name = /home/tchapet/Post-Doc/ARTICLES-DOSSIERS-DES-ARTICLES-EN-REDACTION/NOUVELS-AXES-DE-RECHERCHE-A-REGARDER-URGEMMENT/ARTICLES-EN-REDACTIONS/ARTICLE_MVOTO/Paper2_JCIM/docking_rerun/ligands/9168.pdb
REMARK  0 active torsions:
REMARK  status: ('A' for Active; 'I' for Inactive)
REMARK                            x       y       z     vdW  Elec       q    Type
REMARK                         _______ _______ _______ _____ _____    ______ ____
ROOT
ATOM      1  C1  UNL     1      27.209 -10.723  34.782  0.00  0.00    +0.001 A 
ATOM      2  C2  UNL     1      27.151 -10.484  33.413  0.00  0.00    +0.001 A 
ATOM      3  C3  UNL     1      25.928 -10.536  32.752  0.00  0.00    +0.008 A 
ATOM      4  C4  UNL     1      24.748 -10.828  33.458  0.00  0.00    -0.017 A 
ATOM      5  C5  UNL     1      24.782 -11.075  34.855  0.00  0.00    -0.010 A 
ATOM      6  C6  UNL     1      26.046 -11.014  35.500  0.00  0.00    +0.009 A 
ATOM      7  C7  UNL     1      23.558 -11.370  35.542  0.00  0.00    -0.010 A 
ATOM      8  C8  UNL     1      23.530 -11.622  36.924  0.00  0.00    +0.010 A 
ATOM      9  C9  UNL     1      22.350 -11.908  37.591  0.00  0.00    +0.010 A 
ATOM     10  C10 UNL     1      21.110 -11.961  36.924  0.00  0.00    -0.010 A 
ATOM     11  C11 UNL     1      21.097 -11.709  35.519  0.00  0.00    -0.010 A 
ATOM     12  C12 UNL     1      22.323 -11.413  34.824  0.00  0.00    -0.010 A 
ATOM     13  C13 UNL     1      22.355 -11.158  33.432  0.00  0.00    +0.010 A 
ATOM     14  C14 UNL     1      23.541 -10.872  32.770  0.00  0.00    +0.009 A 
ATOM     15  C15 UNL     1      19.858 -11.762  34.852  0.00  0.00    +0.010 A 
ATOM     16  C16 UNL     1      18.677 -12.048  35.519  0.00  0.00    +0.010 A 
ATOM     17  C17 UNL     1      18.649 -12.300  36.901  0.00  0.00    -0.010 A 
ATOM     18  C18 UNL     1      19.885 -12.257  37.619  0.00  0.00    -0.010 A 
ATOM     19  C19 UNL     1      19.853 -12.513  39.012  0.00  0.00    +0.010 A 
ATOM     20  C20 UNL     1      18.667 -12.798  39.673  0.00  0.00    +0.009 A 
ATOM     21  C21 UNL     1      17.460 -12.842  38.986  0.00  0.00    -0.017 A 
ATOM     22  C22 UNL     1      17.425 -12.595  37.588  0.00  0.00    -0.010 A 
ATOM     23  C23 UNL     1      16.161 -12.656  36.943  0.00  0.00    +0.009 A 
ATOM     24  C24 UNL     1      14.999 -12.947  37.661  0.00  0.00    +0.001 A 
ATOM     25  C25 UNL     1      15.057 -13.186  39.030  0.00  0.00    +0.001 A 
ATOM     26  C26 UNL     1      16.280 -13.135  39.691  0.00  0.00    +0.008 A 
ENDROOT
TORSDOF 0
ENDMDL
MODEL 4
REMARK minimizedAffinity -7.02454138
REMARK minimizedRMSD -1
REMARK  Name = /home/tchapet/Post-Doc/ARTICLES-DOSSIERS-DES-ARTICLES-EN-REDACTION/NOUVELS-AXES-DE-RECHERCHE-A-REGARDER-URGEMMENT/ARTICLES-EN-REDACTIONS/ARTICLE_MVOTO/Paper2_JCIM/docking_rerun/ligands/9168.pdb
REMARK  0 active torsions:
REMARK  status: ('A' for Active; 'I' for Inactive)
REMARK                            x       y       z     vdW  Elec       q    Type
REMARK                         _______ _______ _______ _____ _____    ______ ____
ROOT
ATOM      1  C1  UNL     1      14.988 -12.932  37.640  0.00  0.00    +0.001 A 
ATOM      2  C2  UNL     1      15.039 -13.171  39.009  0.00  0.00    +0.001 A 
ATOM      3  C3  UNL     1      16.259 -13.121  39.675  0.00  0.00    +0.008 A 
ATOM      4  C4  UNL     1      17.443 -12.832  38.975  0.00  0.00    -0.017 A 
ATOM      5  C5  UNL     1      17.415 -12.584  37.578  0.00  0.00    -0.010 A 
ATOM      6  C6  UNL     1      16.154 -12.642  36.927  0.00  0.00    +0.009 A 
ATOM      7  C7  UNL     1      18.643 -12.291  36.896  0.00  0.00    -0.010 A 
ATOM      8  C8  UNL     1      18.677 -12.037  35.515  0.00  0.00    +0.010 A 
ATOM      9  C9  UNL     1      19.861 -11.755  34.852  0.00  0.00    +0.010 A 
ATOM     10  C10 UNL     1      21.098 -11.705  35.525  0.00  0.00    -0.010 A 
ATOM     11  C11 UNL     1      21.104 -11.956  36.930  0.00  0.00    -0.010 A 
ATOM     12  C12 UNL     1      19.875 -12.250  37.619  0.00  0.00    -0.010 A 
ATOM     13  C13 UNL     1      19.836 -12.506  39.011  0.00  0.00    +0.010 A 
ATOM     14  C14 UNL     1      18.647 -12.789  39.668  0.00  0.00    +0.009 A 
ATOM     15  C15 UNL     1      22.341 -11.905  37.602  0.00  0.00    +0.010 A 
ATOM     16  C16 UNL     1      23.525 -11.622  36.941  0.00  0.00    +0.010 A 
ATOM     17  C17 UNL     1      23.559 -11.369  35.559  0.00  0.00    -0.010 A 
ATOM     18  C18 UNL     1      22.327 -11.410  34.835  0.00  0.00    -0.010 A 
ATOM     19  C19 UNL     1      22.365 -11.154  33.443  0.00  0.00    +0.010 A 
ATOM     20  C20 UNL     1      23.555 -10.872  32.787  0.00  0.00    +0.009 A 
ATOM     21  C21 UNL     1      24.759 -10.829  33.480  0.00  0.00    -0.017 A 
ATOM     22  C22 UNL     1      24.787 -11.076  34.877  0.00  0.00    -0.010 A 
ATOM     23  C23 UNL     1      26.048 -11.018  35.528  0.00  0.00    +0.009 A 
ATOM     24  C24 UNL     1      27.214 -10.728  34.816  0.00  0.00    +0.001 A 
ATOM     25  C25 UNL     1      27.162 -10.489  33.446  0.00  0.00    +0.001 A 
ATOM     26  C26 UNL     1      25.942 -10.539  32.779  0.00  0.00    +0.008 A 
ENDROOT
TORSDOF 0
ENDMDL
MODEL 5
REMARK minimizedAffinity -6.78828192
REMARK minimizedRMSD -1
REMARK  Name = /home/tchapet/Post-Doc/ARTICLES-DOSSIERS-DES-ARTICLES-EN-REDACTION/NOUVELS-AXES-DE-RECHERCHE-A-REGARDER-URGEMMENT/ARTICLES-EN-REDACTIONS/ARTICLE_MVOTO/Paper2_JCIM/docking_rerun/ligands/9168.pdb
REMARK  0 active torsions:
REMARK  status: ('A' for Active; 'I' for Inactive)
REMARK                            x       y       z     vdW  Elec       q    Type
REMARK                         _______ _______ _______ _____ _____    ______ ____
ROOT
ATOM      1  C1  UNL     1       3.917  19.019  27.204  0.00  0.00    +0.001 A 
ATOM      2  C2  UNL     1       4.613  20.220  27.123  0.00  0.00    +0.001 A 
ATOM      3  C3  UNL     1       5.421  20.480  26.021  0.00  0.00    +0.008 A 
ATOM      4  C4  UNL     1       5.541  19.536  24.987  0.00  0.00    -0.017 A 
ATOM      5  C5  UNL     1       4.840  18.304  25.048  0.00  0.00    -0.010 A 
ATOM      6  C6  UNL     1       4.023  18.069  26.186  0.00  0.00    +0.009 A 
ATOM      7  C7  UNL     1       4.986  17.364  23.973  0.00  0.00    -0.010 A 
ATOM      8  C8  UNL     1       4.317  16.129  23.978  0.00  0.00    +0.010 A 
ATOM      9  C9  UNL     1       4.457  15.218  22.943  0.00  0.00    +0.010 A 
ATOM     10  C10 UNL     1       5.275  15.479  21.825  0.00  0.00    -0.010 A 
ATOM     11  C11 UNL     1       5.970  16.724  21.784  0.00  0.00    -0.010 A 
ATOM     12  C12 UNL     1       5.827  17.671  22.859  0.00  0.00    -0.010 A 
ATOM     13  C13 UNL     1       6.500  18.917  22.858  0.00  0.00    +0.010 A 
ATOM     14  C14 UNL     1       6.356  19.824  23.898  0.00  0.00    +0.009 A 
ATOM     15  C15 UNL     1       6.788  16.984  20.667  0.00  0.00    +0.010 A 
ATOM     16  C16 UNL     1       6.928  16.075  19.631  0.00  0.00    +0.010 A 
ATOM     17  C17 UNL     1       6.259  14.839  19.636  0.00  0.00    -0.010 A 
ATOM     18  C18 UNL     1       5.418  14.532  20.750  0.00  0.00    -0.010 A 
ATOM     19  C19 UNL     1       4.745  13.285  20.751  0.00  0.00    +0.010 A 
ATOM     20  C20 UNL     1       4.889  12.379  19.711  0.00  0.00    +0.009 A 
ATOM     21  C21 UNL     1       5.704  12.666  18.622  0.00  0.00    -0.017 A 
ATOM     22  C22 UNL     1       6.405  13.899  18.561  0.00  0.00    -0.010 A 
ATOM     23  C23 UNL     1       7.222  14.133  17.424  0.00  0.00    +0.009 A 
ATOM     24  C24 UNL     1       7.328  13.184  16.405  0.00  0.00    +0.001 A 
ATOM     25  C25 UNL     1       6.632  11.982  16.486  0.00  0.00    +0.001 A 
ATOM     26  C26 UNL     1       5.824  11.722  17.588  0.00  0.00    +0.008 A 
ENDROOT
TORSDOF 0
ENDMDL
MODEL 6
REMARK minimizedAffinity -6.7833581
REMARK minimizedRMSD -1
REMARK  Name = /home/tchapet/Post-Doc/ARTICLES-DOSSIERS-DES-ARTICLES-EN-REDACTION/NOUVELS-AXES-DE-RECHERCHE-A-REGARDER-URGEMMENT/ARTICLES-EN-REDACTIONS/ARTICLE_MVOTO/Paper2_JCIM/docking_rerun/ligands/9168.pdb
REMARK  0 active torsions:
REMARK  status: ('A' for Active; 'I' for Inactive)
REMARK                            x       y       z     vdW  Elec       q    Type
REMARK                         _______ _______ _______ _____ _____    ______ ____
ROOT
ATOM      1  C1  UNL     1       7.318  13.208  16.438  0.00  0.00    +0.001 A 
ATOM      2  C2  UNL     1       6.611  12.012  16.502  0.00  0.00    +0.001 A 
ATOM      3  C3  UNL     1       5.784  11.753  17.589  0.00  0.00    +0.008 A 
ATOM      4  C4  UNL     1       5.656  12.692  18.627  0.00  0.00    -0.017 A 
ATOM      5  C5  UNL     1       6.366  13.919  18.584  0.00  0.00    -0.010 A 
ATOM      6  C6  UNL     1       7.203  14.154  17.460  0.00  0.00    +0.009 A 
ATOM      7  C7  UNL     1       6.211  14.855  19.661  0.00  0.00    -0.010 A 
ATOM      8  C8  UNL     1       6.889  16.085  19.672  0.00  0.00    +0.010 A 
ATOM      9  C9  UNL     1       6.742  16.991  20.711  0.00  0.00    +0.010 A 
ATOM     10  C10 UNL     1       5.904  16.731  21.814  0.00  0.00    -0.010 A 
ATOM     11  C11 UNL     1       5.198  15.491  21.838  0.00  0.00    -0.010 A 
ATOM     12  C12 UNL     1       5.350  14.549  20.760  0.00  0.00    -0.010 A 
ATOM     13  C13 UNL     1       4.669  13.308  20.744  0.00  0.00    +0.010 A 
ATOM     14  C14 UNL     1       4.821  12.406  19.701  0.00  0.00    +0.009 A 
ATOM     15  C15 UNL     1       4.361  15.231  22.940  0.00  0.00    +0.010 A 
ATOM     16  C16 UNL     1       4.213  16.136  23.979  0.00  0.00    +0.010 A 
ATOM     17  C17 UNL     1       4.891  17.367  23.991  0.00  0.00    -0.010 A 
ATOM     18  C18 UNL     1       5.752  17.673  22.892  0.00  0.00    -0.010 A 
ATOM     19  C19 UNL     1       6.433  18.914  22.908  0.00  0.00    +0.010 A 
ATOM     20  C20 UNL     1       6.282  19.816  23.951  0.00  0.00    +0.009 A 
ATOM     21  C21 UNL     1       5.446  19.530  25.025  0.00  0.00    -0.017 A 
ATOM     22  C22 UNL     1       4.735  18.302  25.068  0.00  0.00    -0.010 A 
ATOM     23  C23 UNL     1       3.899  18.068  26.192  0.00  0.00    +0.009 A 
ATOM     24  C24 UNL     1       3.783  19.013  27.214  0.00  0.00    +0.001 A 
ATOM     25  C25 UNL     1       4.491  20.210  27.150  0.00  0.00    +0.001 A 
ATOM     26  C26 UNL     1       5.319  20.469  26.062  0.00  0.00    +0.008 A 
ENDROOT
TORSDOF 0
ENDMDL
MODEL 7
REMARK minimizedAffinity -6.7124033
REMARK minimizedRMSD -1
REMARK  Name = /home/tchapet/Post-Doc/ARTICLES-DOSSIERS-DES-ARTICLES-EN-REDACTION/NOUVELS-AXES-DE-RECHERCHE-A-REGARDER-URGEMMENT/ARTICLES-EN-REDACTIONS/ARTICLE_MVOTO/Paper2_JCIM/docking_rerun/ligands/9168.pdb
REMARK  0 active torsions:
REMARK  status: ('A' for Active; 'I' for Inactive)
REMARK                            x       y       z     vdW  Elec       q    Type
REMARK                         _______ _______ _______ _____ _____    ______ ____
ROOT
ATOM      1  C1  UNL     1       4.831  -8.096  29.112  0.00  0.00    +0.001 A 
ATOM      2  C2  UNL     1       5.283  -6.932  28.499  0.00  0.00    +0.001 A 
ATOM      3  C3  UNL     1       5.698  -5.856  29.276  0.00  0.00    +0.008 A 
ATOM      4  C4  UNL     1       5.663  -5.934  30.679  0.00  0.00    -0.017 A 
ATOM      5  C5  UNL     1       5.205  -7.111  31.326  0.00  0.00    -0.010 A 
ATOM      6  C6  UNL     1       4.789  -8.192  30.505  0.00  0.00    +0.009 A 
ATOM      7  C7  UNL     1       5.184  -7.156  32.760  0.00  0.00    -0.010 A 
ATOM      8  C8  UNL     1       4.742  -8.293  33.457  0.00  0.00    +0.010 A 
ATOM      9  C9  UNL     1       4.719  -8.339  34.841  0.00  0.00    +0.010 A 
ATOM     10  C10 UNL     1       5.138  -7.250  35.631  0.00  0.00    -0.010 A 
ATOM     11  C11 UNL     1       5.595  -6.077  34.960  0.00  0.00    -0.010 A 
ATOM     12  C12 UNL     1       5.619  -6.027  33.521  0.00  0.00    -0.010 A 
ATOM     13  C13 UNL     1       6.064  -4.882  32.816  0.00  0.00    +0.010 A 
ATOM     14  C14 UNL     1       6.084  -4.842  31.429  0.00  0.00    +0.009 A 
ATOM     15  C15 UNL     1       6.014  -4.988  35.750  0.00  0.00    +0.010 A 
ATOM     16  C16 UNL     1       5.992  -5.034  37.134  0.00  0.00    +0.010 A 
ATOM     17  C17 UNL     1       5.550  -6.172  37.831  0.00  0.00    -0.010 A 
ATOM     18  C18 UNL     1       5.115  -7.301  37.070  0.00  0.00    -0.010 A 
ATOM     19  C19 UNL     1       4.670  -8.445  37.775  0.00  0.00    +0.010 A 
ATOM     20  C20 UNL     1       4.650  -8.485  39.162  0.00  0.00    +0.009 A 
ATOM     21  C21 UNL     1       5.071  -7.393  39.912  0.00  0.00    -0.017 A 
ATOM     22  C22 UNL     1       5.529  -6.216  39.265  0.00  0.00    -0.010 A 
ATOM     23  C23 UNL     1       5.944  -5.135  40.086  0.00  0.00    +0.009 A 
ATOM     24  C24 UNL     1       5.903  -5.231  41.479  0.00  0.00    +0.001 A 
ATOM     25  C25 UNL     1       5.451  -6.395  42.092  0.00  0.00    +0.001 A 
ATOM     26  C26 UNL     1       5.036  -7.472  41.315  0.00  0.00    +0.008 A 
ENDROOT
TORSDOF 0
ENDMDL
MODEL 8
REMARK minimizedAffinity -6.64875555
REMARK minimizedRMSD -1
REMARK  Name = /home/tchapet/Post-Doc/ARTICLES-DOSSIERS-DES-ARTICLES-EN-REDACTION/NOUVELS-AXES-DE-RECHERCHE-A-REGARDER-URGEMMENT/ARTICLES-EN-REDACTIONS/ARTICLE_MVOTO/Paper2_JCIM/docking_rerun/ligands/9168.pdb
REMARK  0 active torsions:
REMARK  status: ('A' for Active; 'I' for Inactive)
REMARK                            x       y       z     vdW  Elec       q    Type
REMARK                         _______ _______ _______ _____ _____    ______ ____
ROOT
ATOM      1  C1  UNL     1      19.290 -12.697  39.191  0.00  0.00    +0.001 A 
ATOM      2  C2  UNL     1      18.191 -12.490  38.364  0.00  0.00    +0.001 A 
ATOM      3  C3  UNL     1      18.379 -12.054  37.057  0.00  0.00    +0.008 A 
ATOM      4  C4  UNL     1      19.674 -11.820  36.564  0.00  0.00    -0.017 A 
ATOM      5  C5  UNL     1      20.811 -12.024  37.389  0.00  0.00    -0.010 A 
ATOM      6  C6  UNL     1      20.584 -12.470  38.718  0.00  0.00    +0.009 A 
ATOM      7  C7  UNL     1      22.118 -11.775  36.852  0.00  0.00    -0.010 A 
ATOM      8  C8  UNL     1      23.279 -11.960  37.620  0.00  0.00    +0.010 A 
ATOM      9  C9  UNL     1      24.542 -11.719  37.105  0.00  0.00    +0.010 A 
ATOM     10  C10 UNL     1      24.736 -11.277  35.781  0.00  0.00    -0.010 A 
ATOM     11  C11 UNL     1      23.581 -11.079  34.968  0.00  0.00    -0.010 A 
ATOM     12  C12 UNL     1      22.267 -11.327  35.502  0.00  0.00    -0.010 A 
ATOM     13  C13 UNL     1      21.094 -11.142  34.731  0.00  0.00    +0.010 A 
ATOM     14  C14 UNL     1      19.832 -11.385  35.253  0.00  0.00    +0.009 A 
ATOM     15  C15 UNL     1      23.775 -10.637  33.645  0.00  0.00    +0.010 A 
ATOM     16  C16 UNL     1      25.038 -10.396  33.129  0.00  0.00    +0.010 A 
ATOM     17  C17 UNL     1      26.199 -10.581  33.898  0.00  0.00    -0.010 A 
ATOM     18  C18 UNL     1      26.050 -11.029  35.247  0.00  0.00    -0.010 A 
ATOM     19  C19 UNL     1      27.223 -11.213  36.019  0.00  0.00    +0.010 A 
ATOM     20  C20 UNL     1      28.485 -10.971  35.497  0.00  0.00    +0.009 A 
ATOM     21  C21 UNL     1      28.643 -10.536  34.186  0.00  0.00    -0.017 A 
ATOM     22  C22 UNL     1      27.506 -10.332  33.360  0.00  0.00    -0.010 A 
ATOM     23  C23 UNL     1      27.733  -9.886  32.032  0.00  0.00    +0.009 A 
ATOM     24  C24 UNL     1      29.027  -9.659  31.558  0.00  0.00    +0.001 A 
ATOM     25  C25 UNL     1      30.126  -9.865  32.385  0.00  0.00    +0.001 A 
ATOM     26  C26 UNL     1      29.938 -10.301  33.693  0.00  0.00    +0.008 A 
ENDROOT
TORSDOF 0
ENDMDL
MODEL 9
REMARK minimizedAffinity -6.63052797
REMARK minimizedRMSD -1
REMARK  Name = /home/tchapet/Post-Doc/ARTICLES-DOSSIERS-DES-ARTICLES-EN-REDACTION/NOUVELS-AXES-DE-RECHERCHE-A-REGARDER-URGEMMENT/ARTICLES-EN-REDACTIONS/ARTICLE_MVOTO/Paper2_JCIM/docking_rerun/ligands/9168.pdb
REMARK  0 active torsions:
REMARK  status: ('A' for Active; 'I' for Inactive)
REMARK                            x       y       z     vdW  Elec       q    Type
REMARK                         _______ _______ _______ _____ _____    ______ ____
ROOT
ATOM      1  C1  UNL     1       5.911  20.946  25.849  0.00  0.00    +0.001 A 
ATOM      2  C2  UNL     1       4.999  20.530  26.813  0.00  0.00    +0.001 A 
ATOM      3  C3  UNL     1       4.338  19.315  26.664  0.00  0.00    +0.008 A 
ATOM      4  C4  UNL     1       4.584  18.503  25.543  0.00  0.00    -0.017 A 
ATOM      5  C5  UNL     1       5.509  18.906  24.547  0.00  0.00    -0.010 A 
ATOM      6  C6  UNL     1       6.168  20.152  24.729  0.00  0.00    +0.009 A 
ATOM      7  C7  UNL     1       5.736  18.052  23.417  0.00  0.00    -0.010 A 
ATOM      8  C8  UNL     1       6.640  18.398  22.399  0.00  0.00    +0.010 A 
ATOM      9  C9  UNL     1       6.860  17.575  21.306  0.00  0.00    +0.010 A 
ATOM     10  C10 UNL     1       6.192  16.344  21.152  0.00  0.00    -0.010 A 
ATOM     11  C11 UNL     1       5.266  15.957  22.166  0.00  0.00    -0.010 A 
ATOM     12  C12 UNL     1       5.035  16.811  23.302  0.00  0.00    -0.010 A 
ATOM     13  C13 UNL     1       4.124  16.466  24.330  0.00  0.00    +0.010 A 
ATOM     14  C14 UNL     1       3.908  17.294  25.422  0.00  0.00    +0.009 A 
ATOM     15  C15 UNL     1       4.597  14.727  22.012  0.00  0.00    +0.010 A 
ATOM     16  C16 UNL     1       4.817  13.903  20.920  0.00  0.00    +0.010 A 
ATOM     17  C17 UNL     1       5.722  14.250  19.902  0.00  0.00    -0.010 A 
ATOM     18  C18 UNL     1       6.423  15.490  20.016  0.00  0.00    -0.010 A 
ATOM     19  C19 UNL     1       7.334  15.836  18.988  0.00  0.00    +0.010 A 
ATOM     20  C20 UNL     1       7.550  15.007  17.897  0.00  0.00    +0.009 A 
ATOM     21  C21 UNL     1       6.874  13.798  17.775  0.00  0.00    -0.017 A 
ATOM     22  C22 UNL     1       5.948  13.394  18.772  0.00  0.00    -0.010 A 
ATOM     23  C23 UNL     1       5.290  12.150  18.590  0.00  0.00    +0.009 A 
ATOM     24  C24 UNL     1       5.547  11.355  17.470  0.00  0.00    +0.001 A 
ATOM     25  C25 UNL     1       6.459  11.771  16.505  0.00  0.00    +0.001 A 
ATOM     26  C26 UNL     1       7.120  12.986  16.655  0.00  0.00    +0.008 A 
ENDROOT
TORSDOF 0
ENDMDL
