REMARK  Name = /home/tchapet/Post-Doc/ARTICLES-DOSSIERS-DES-ARTICLES-EN-REDACTION/NOUVELS-AXES-DE-RECHERCHE-A-REGARDER-URGEMMENT/ARTICLES-EN-REDACTIONS/ARTICLE_MVOTO/Paper2_JCIM/docking_rerun/calibration_outputs/1DMP_DMQ_native.pdb
REMARK  12 active torsions:
REMARK  status: ('A' for Active; 'I' for Inactive)
REMARK    1  A    between atoms: N2_3  and  C2_4
REMARK    2  A    between atoms: C2_4  and  C20_13
REMARK    3  A    between atoms: C3_5  and  C31_20
REMARK    4  A    between atoms: C4_6  and  O4_7
REMARK    5  A    between atoms: C5_8  and  O5_9
REMARK    6  A    between atoms: C6_10  and  C61_27
REMARK    7  A    between atoms: C7_11  and  N7_12
REMARK    8  A    between atoms: C7_11  and  C70_34
REMARK    9  A    between atoms: C28_17  and  N29_18
REMARK   10  A    between atoms: C31_20  and  C32_21
REMARK   11  A    between atoms: C61_27  and  C62_28
REMARK   12  A    between atoms: C72_36  and  N79_37
REMARK                            x       y       z     vdW  Elec       q    Type
REMARK                         _______ _______ _______ _____ _____    ______ ____
ROOT
ATOM      1  C1  DMQ B 450      -8.890  15.322  27.739  0.00  0.00    +0.308 C 
ATOM      2  O1  DMQ B 450      -8.408  14.213  27.620  0.00  0.00    -0.252 OA
ATOM      3  N2  DMQ B 450      -8.609  16.169  26.740  0.00  0.00    -0.259 N 
ATOM      4  C3  DMQ B 450      -8.678  17.649  26.914  0.00  0.00    +0.114 C 
ATOM      5  C4  DMQ B 450     -10.018  18.272  27.161  0.00  0.00    +0.202 C 
ATOM      6  C5  DMQ B 450     -10.591  18.023  28.535  0.00  0.00    +0.202 C 
ATOM      7  C6  DMQ B 450     -10.830  16.559  28.855  0.00  0.00    +0.114 C 
ATOM      8  N7  DMQ B 450      -9.636  15.647  28.845  0.00  0.00    -0.259 N 
ENDROOT
BRANCH   5   9
ATOM      9  O4  DMQ B 450      -9.786  19.625  26.924  0.00  0.00    -0.219 OA
ATOM     10  H   DMQ B 450      -9.100  19.946  27.529  0.00  0.00    +0.000 HD
ENDBRANCH   5   9
BRANCH   6  11
ATOM     11  O5  DMQ B 450     -11.823  18.647  28.554  0.00  0.00    -0.219 OA
ATOM     12  H   DMQ B 450     -12.394  18.256  27.874  0.00  0.00    +0.000 HD
ENDBRANCH   6  11
BRANCH   3  13
ATOM     13  C2  DMQ B 450      -8.033  15.586  25.485  0.00  0.00    +0.122 C 
BRANCH  13  14
ATOM     14  C20 DMQ B 450      -8.717  16.004  24.221  0.00  0.00    -0.001 A 
ATOM     15  C21 DMQ B 450     -10.116  15.918  24.124  0.00  0.00    -0.003 A 
ATOM     16  C22 DMQ B 450     -10.814  16.327  22.975  0.00  0.00    +0.001 A 
ATOM     17  C23 DMQ B 450     -10.079  16.849  21.907  0.00  0.00    +0.018 A 
ATOM     18  C28 DMQ B 450      -8.669  16.959  21.996  0.00  0.00    +0.089 A 
ATOM     19  C29 DMQ B 450      -7.982  16.516  23.146  0.00  0.00    +0.015 A 
BRANCH  18  20
ATOM     20  N29 DMQ B 450      -7.981  17.669  20.975  0.00  0.00    -0.128 N 
ATOM     21  H   DMQ B 450      -8.467  17.975  20.175  0.00  0.00    +0.000 HD
ATOM     22  H   DMQ B 450      -7.019  17.855  21.067  0.00  0.00    +0.000 HD
ENDBRANCH  18  20
ENDBRANCH  13  14
ENDBRANCH   3  13
BRANCH   8  23
ATOM     23  C7  DMQ B 450      -9.413  14.875  30.096  0.00  0.00    +0.122 C 
BRANCH  23  24
ATOM     24  C70 DMQ B 450      -9.510  15.583  31.430  0.00  0.00    -0.001 A 
ATOM     25  C71 DMQ B 450     -10.455  15.134  32.380  0.00  0.00    +0.015 A 
ATOM     26  C72 DMQ B 450     -10.486  15.697  33.669  0.00  0.00    +0.089 A 
ATOM     27  C77 DMQ B 450      -9.581  16.725  34.002  0.00  0.00    +0.018 A 
ATOM     28  C78 DMQ B 450      -8.641  17.201  33.048  0.00  0.00    +0.001 A 
ATOM     29  C79 DMQ B 450      -8.607  16.622  31.763  0.00  0.00    -0.003 A 
BRANCH  26  30
ATOM     30  N79 DMQ B 450     -11.411  15.221  34.649  0.00  0.00    -0.128 N 
ATOM     31  H   DMQ B 450     -12.045  14.503  34.420  0.00  0.00    +0.000 HD
ATOM     32  H   DMQ B 450     -11.415  15.611  35.553  0.00  0.00    +0.000 HD
ENDBRANCH  26  30
ENDBRANCH  23  24
ENDBRANCH   8  23
BRANCH   4  33
ATOM     33  C31 DMQ B 450      -7.525  18.131  27.814  0.00  0.00    +0.049 C 
BRANCH  33  34
ATOM     34  C32 DMQ B 450      -6.244  18.138  26.992  0.00  0.00    -0.020 A 
ATOM     35  C33 DMQ B 450      -5.223  17.185  27.232  0.00  0.00    -0.004 A 
ATOM     36  C34 DMQ B 450      -4.059  17.178  26.454  0.00  0.00    -0.000 A 
ATOM     37  C35 DMQ B 450      -3.921  18.118  25.420  0.00  0.00    -0.000 A 
ATOM     38  C36 DMQ B 450      -4.927  19.075  25.152  0.00  0.00    -0.000 A 
ATOM     39  C37 DMQ B 450      -6.091  19.088  25.947  0.00  0.00    -0.004 A 
ENDBRANCH  33  34
ENDBRANCH   4  33
BRANCH   7  40
ATOM     40  C61 DMQ B 450     -12.020  15.857  28.104  0.00  0.00    +0.049 C 
BRANCH  40  41
ATOM     41  C62 DMQ B 450     -12.541  14.596  28.791  0.00  0.00    -0.020 A 
ATOM     42  C63 DMQ B 450     -13.371  14.700  29.926  0.00  0.00    -0.004 A 
ATOM     43  C64 DMQ B 450     -13.778  13.548  30.621  0.00  0.00    -0.000 A 
ATOM     44  C65 DMQ B 450     -13.357  12.280  30.172  0.00  0.00    -0.000 A 
ATOM     45  C66 DMQ B 450     -12.536  12.147  29.028  0.00  0.00    -0.000 A 
ATOM     46  C67 DMQ B 450     -12.132  13.312  28.339  0.00  0.00    -0.004 A 
ENDBRANCH  40  41
ENDBRANCH   7  40
TORSDOF 12
