MODEL 1
REMARK minimizedAffinity -6.29737711
REMARK minimizedRMSD -1
REMARK  Name = /home/tchapet/Post-Doc/ARTICLES-DOSSIERS-DES-ARTICLES-EN-REDACTION/NOUVELS-AXES-DE-RECHERCHE-A-REGARDER-URGEMMENT/ARTICLES-EN-REDACTIONS/ARTICLE_MVOTO/Paper2_JCIM/docking_rerun/calibration_outputs/6Y2F_O6K_native.pdb
REMARK  18 active torsions:
REMARK  status: ('A' for Active; 'I' for Inactive)
REMARK    1  A    between atoms: C24_2  and  O25_3
REMARK    2  A    between atoms: C24_2  and  N23_8
REMARK    3  A    between atoms: O25_3  and  C27_4
REMARK    4  A    between atoms: C27_4  and  C31_5
REMARK    5  A    between atoms: C27_4  and  C32_6
REMARK    6  A    between atoms: C27_4  and  C33_7
REMARK    7  A    between atoms: N15_15  and  C20_16
REMARK    8  A    between atoms: C20_16  and  C22_17
REMARK    9  A    between atoms: C20_16  and  C36_21
REMARK   10  A    between atoms: C22_17  and  C29_18
REMARK   11  A    between atoms: N38_23  and  C40_24
REMARK   12  A    between atoms: C40_24  and  C42_25
REMARK   13  A    between atoms: C40_24  and  C57_32
REMARK   14  A    between atoms: C42_25  and  C45_26
REMARK   15  A    between atoms: C57_32  and  O40_33
REMARK   16  A    between atoms: C57_32  and  C35_34
REMARK   17  A    between atoms: N36_36  and  C13_37
REMARK   18  A    between atoms: C13_37  and  C14_38
REMARK                            x       y       z     vdW  Elec       q    Type
REMARK                         _______ _______ _______ _____ _____    ______ ____
ROOT
ATOM      1  C36 O6K A 502     -19.250   0.050   6.551  0.00  0.00    +0.260 C 
ATOM      2  O37 O6K A 502     -18.392  -0.785   6.839  0.00  0.00    -0.272 OA
ATOM      3  N38 O6K A 502     -19.076   1.370   6.731  0.00  0.00    -0.203 N 
ATOM      4  H   O6K A 502     -19.786   1.983   6.436  0.00  0.00    +0.000 HD
ENDROOT
BRANCH   1   5
ATOM      5  C20 O6K A 502     -20.571  -0.391   5.978  0.00  0.00    +0.158 C 
BRANCH   5  13
ATOM      6  N23 O6K A 502     -21.373   2.482   2.171  0.00  0.00    -0.142 NA
ATOM      7  C19 O6K A 502     -20.865   1.299   2.588  0.00  0.00    +0.112 C 
ATOM      8  C21 O6K A 502     -20.975   1.037   4.033  0.00  0.00    +0.265 C 
ATOM      9  O22 O6K A 502     -21.515   1.879   4.814  0.00  0.00    -0.268 OA
ATOM     10  C18 O6K A 502     -20.219   0.349   1.773  0.00  0.00    +0.075 C 
ATOM     11  C17 O6K A 502     -19.710  -0.805   2.333  0.00  0.00    -0.004 C 
ATOM     12  C16 O6K A 502     -19.849  -1.045   3.696  0.00  0.00    +0.064 C 
ATOM     13  N15 O6K A 502     -20.463  -0.176   4.535  0.00  0.00    -0.246 N 
BRANCH   6  15
ATOM     14  O26 O6K A 502     -21.790   2.615  -0.061  0.00  0.00    -0.224 OA
ATOM     15  C24 O6K A 502     -21.259   3.031   0.957  0.00  0.00    +0.425 C 
BRANCH  15  16
ATOM     16  O25 O6K A 502     -20.435   4.224   0.912  0.00  0.00    -0.441 OA
BRANCH  16  17
ATOM     17  C27 O6K A 502     -19.208   4.369   0.173  0.00  0.00    +0.138 C 
ATOM     18  C31 O6K A 502     -19.559   4.890  -1.232  0.00  0.00    +0.044 C 
ATOM     19  C32 O6K A 502     -18.295   5.355   0.918  0.00  0.00    +0.044 C 
ATOM     20  C33 O6K A 502     -18.464   3.030   0.079  0.00  0.00    +0.044 C 
ENDBRANCH  16  17
ENDBRANCH  15  16
ENDBRANCH   6  15
ENDBRANCH   5  13
BRANCH   5  21
ATOM     21  C22 O6K A 502     -20.896  -1.839   6.372  0.00  0.00    +0.030 C 
BRANCH  21  22
ATOM     22  C29 O6K A 502     -22.345  -2.190   6.025  0.00  0.00    +0.002 C 
ATOM     23  C34 O6K A 502     -22.645  -3.521   5.343  0.00  0.00    +0.000 C 
ATOM     24  C30 O6K A 502     -22.911  -3.367   6.836  0.00  0.00    +0.000 C 
ENDBRANCH  21  22
ENDBRANCH   5  21
ENDBRANCH   1   5
BRANCH   3  25
ATOM     25  C40 O6K A 502     -17.902   1.922   7.333  0.00  0.00    +0.135 C 
BRANCH  25  26
ATOM     26  C42 O6K A 502     -17.222   3.039   6.479  0.00  0.00    +0.034 C 
BRANCH  26  27
ATOM     27  C45 O6K A 502     -15.744   2.984   6.728  0.00  0.00    +0.082 C 
ATOM     28  C47 O6K A 502     -15.200   3.799   7.881  0.00  0.00    +0.241 C 
ATOM     29  O48 O6K A 502     -15.598   4.931   8.143  0.00  0.00    -0.273 OA
ATOM     30  N49 O6K A 502     -14.221   3.110   8.490  0.00  0.00    -0.205 N 
ATOM     31  C51 O6K A 502     -13.937   1.823   7.845  0.00  0.00    +0.116 C 
ATOM     32  C54 O6K A 502     -15.214   1.582   7.050  0.00  0.00    +0.033 C 
ATOM     33  H   O6K A 502     -13.742   3.435   9.288  0.00  0.00    +0.000 HD
ENDBRANCH  26  27
ENDBRANCH  25  26
BRANCH  25  34
ATOM     34  C57 O6K A 502     -18.447   2.272   8.713  0.00  0.00    +0.249 C 
BRANCH  34  35
ATOM     35  C35 O6K A 502     -17.744   1.477   9.737  0.00  0.00    +0.274 C 
ATOM     36  O41 O6K A 502     -16.735   1.964  10.213  0.00  0.00    -0.271 OA
ATOM     37  N36 O6K A 502     -18.389   0.310  10.029  0.00  0.00    -0.198 N 
ATOM     38  H   O6K A 502     -19.210   0.110   9.525  0.00  0.00    +0.000 HD
BRANCH  37  39
ATOM     39  C13 O6K A 502     -17.960  -0.668  11.029  0.00  0.00    +0.142 C 
BRANCH  39  40
ATOM     40  C14 O6K A 502     -18.133  -2.092  10.513  0.00  0.00    -0.001 A 
ATOM     41  C28 O6K A 502     -19.254  -2.469   9.773  0.00  0.00    -0.003 A 
ATOM     42  C26 O6K A 502     -19.394  -3.785   9.325  0.00  0.00    -0.000 A 
ATOM     43  C25 O6K A 502     -18.409  -4.738   9.612  0.00  0.00    -0.000 A 
ATOM     44  C23 O6K A 502     -17.283  -4.370  10.352  0.00  0.00    -0.000 A 
ATOM     45  C15 O6K A 502     -17.151  -3.052  10.797  0.00  0.00    -0.003 A 
ENDBRANCH  39  40
ENDBRANCH  37  39
ENDBRANCH  34  35
BRANCH  34  46
ATOM     46  O40 O6K A 502     -19.861   1.914   8.947  0.00  0.00    -0.211 OA
ATOM     47  H   O6K A 502     -19.964   0.951   8.893  0.00  0.00    +0.000 HD
ENDBRANCH  34  46
ENDBRANCH  25  34
ENDBRANCH   3  25
TORSDOF 15
ENDMDL
MODEL 2
REMARK minimizedAffinity -6.01130199
REMARK minimizedRMSD -1
REMARK  Name = /home/tchapet/Post-Doc/ARTICLES-DOSSIERS-DES-ARTICLES-EN-REDACTION/NOUVELS-AXES-DE-RECHERCHE-A-REGARDER-URGEMMENT/ARTICLES-EN-REDACTIONS/ARTICLE_MVOTO/Paper2_JCIM/docking_rerun/calibration_outputs/6Y2F_O6K_native.pdb
REMARK  18 active torsions:
REMARK  status: ('A' for Active; 'I' for Inactive)
REMARK    1  A    between atoms: C24_2  and  O25_3
REMARK    2  A    between atoms: C24_2  and  N23_8
REMARK    3  A    between atoms: O25_3  and  C27_4
REMARK    4  A    between atoms: C27_4  and  C31_5
REMARK    5  A    between atoms: C27_4  and  C32_6
REMARK    6  A    between atoms: C27_4  and  C33_7
REMARK    7  A    between atoms: N15_15  and  C20_16
REMARK    8  A    between atoms: C20_16  and  C22_17
REMARK    9  A    between atoms: C20_16  and  C36_21
REMARK   10  A    between atoms: C22_17  and  C29_18
REMARK   11  A    between atoms: N38_23  and  C40_24
REMARK   12  A    between atoms: C40_24  and  C42_25
REMARK   13  A    between atoms: C40_24  and  C57_32
REMARK   14  A    between atoms: C42_25  and  C45_26
REMARK   15  A    between atoms: C57_32  and  O40_33
REMARK   16  A    between atoms: C57_32  and  C35_34
REMARK   17  A    between atoms: N36_36  and  C13_37
REMARK   18  A    between atoms: C13_37  and  C14_38
REMARK                            x       y       z     vdW  Elec       q    Type
REMARK                         _______ _______ _______ _____ _____    ______ ____
ROOT
ATOM      1  C36 O6K A 502       2.228  -8.805   5.703  0.00  0.00    +0.260 C 
ATOM      2  O37 O6K A 502       3.109  -8.638   4.859  0.00  0.00    -0.272 OA
ATOM      3  N38 O6K A 502       0.930  -8.554   5.467  0.00  0.00    -0.203 N 
ATOM      4  H   O6K A 502       0.275  -8.753   6.174  0.00  0.00    +0.000 HD
ENDROOT
BRANCH   1   5
ATOM      5  C20 O6K A 502       2.587  -9.301   7.079  0.00  0.00    +0.158 C 
BRANCH   5  13
ATOM      6  N23 O6K A 502      -0.708 -12.730   7.964  0.00  0.00    -0.142 NA
ATOM      7  C19 O6K A 502       0.548 -12.475   7.529  0.00  0.00    +0.112 C 
ATOM      8  C21 O6K A 502       0.943 -11.057   7.529  0.00  0.00    +0.265 C 
ATOM      9  O22 O6K A 502       0.143 -10.152   7.917  0.00  0.00    -0.268 OA
ATOM     10  C18 O6K A 502       1.461 -13.434   7.049  0.00  0.00    +0.075 C 
ATOM     11  C17 O6K A 502       2.703 -13.036   6.597  0.00  0.00    -0.004 C 
ATOM     12  C16 O6K A 502       3.066 -11.694   6.632  0.00  0.00    +0.064 C 
ATOM     13  N15 O6K A 502       2.238 -10.722   7.086  0.00  0.00    -0.246 N 
BRANCH   6  15
ATOM     14  O26 O6K A 502      -1.764 -14.437   6.896  0.00  0.00    -0.224 OA
ATOM     15  C24 O6K A 502      -1.364 -13.894   7.913  0.00  0.00    +0.425 C 
BRANCH  15  16
ATOM     16  O25 O6K A 502      -1.576 -14.520   9.205  0.00  0.00    -0.441 OA
BRANCH  16  17
ATOM     17  C27 O6K A 502      -1.126 -15.834   9.584  0.00  0.00    +0.138 C 
ATOM     18  C31 O6K A 502       0.247 -16.072   8.931  0.00  0.00    +0.044 C 
ATOM     19  C32 O6K A 502      -1.030 -15.902  11.116  0.00  0.00    +0.044 C 
ATOM     20  C33 O6K A 502      -2.127 -16.907   9.135  0.00  0.00    +0.044 C 
ENDBRANCH  16  17
ENDBRANCH  15  16
ENDBRANCH   6  15
ENDBRANCH   5  13
BRANCH   5  21
ATOM     21  C22 O6K A 502       4.058  -9.017   7.411  0.00  0.00    +0.030 C 
BRANCH  21  22
ATOM     22  C29 O6K A 502       4.259  -8.852   8.919  0.00  0.00    +0.002 C 
ATOM     23  C34 O6K A 502       4.414 -10.095   9.790  0.00  0.00    +0.000 C 
ATOM     24  C30 O6K A 502       5.648  -9.285   9.413  0.00  0.00    +0.000 C 
ENDBRANCH  21  22
ENDBRANCH   5  21
ENDBRANCH   1   5
BRANCH   3  25
ATOM     25  C40 O6K A 502       0.458  -8.009   4.231  0.00  0.00    +0.135 C 
BRANCH  25  26
ATOM     26  C42 O6K A 502      -0.412  -9.002   3.396  0.00  0.00    +0.034 C 
BRANCH  26  27
ATOM     27  C45 O6K A 502      -0.410 -10.328   4.095  0.00  0.00    +0.082 C 
ATOM     28  C47 O6K A 502      -1.615 -10.672   4.943  0.00  0.00    +0.241 C 
ATOM     29  O48 O6K A 502      -2.178  -9.853   5.663  0.00  0.00    -0.273 OA
ATOM     30  N49 O6K A 502      -1.898 -11.979   4.806  0.00  0.00    -0.205 N 
ATOM     31  C51 O6K A 502      -0.949 -12.684   3.937  0.00  0.00    +0.116 C 
ATOM     32  C54 O6K A 502      -0.329 -11.535   3.152  0.00  0.00    +0.033 C 
ATOM     33  H   O6K A 502      -2.663 -12.418   5.244  0.00  0.00    +0.000 HD
ENDBRANCH  26  27
ENDBRANCH  25  26
BRANCH  25  34
ATOM     34  C57 O6K A 502      -0.171  -6.713   4.731  0.00  0.00    +0.249 C 
BRANCH  34  35
ATOM     35  C35 O6K A 502       0.797  -5.990   5.578  0.00  0.00    +0.274 C 
ATOM     36  O41 O6K A 502       0.506  -5.856   6.752  0.00  0.00    -0.271 OA
ATOM     37  N36 O6K A 502       1.920  -5.623   4.894  0.00  0.00    -0.198 N 
ATOM     38  H   O6K A 502       1.956  -5.842   3.935  0.00  0.00    +0.000 HD
BRANCH  37  39
ATOM     39  C13 O6K A 502       3.073  -4.930   5.467  0.00  0.00    +0.142 C 
BRANCH  39  40
ATOM     40  C14 O6K A 502       3.813  -4.125   4.406  0.00  0.00    -0.001 A 
ATOM     41  C28 O6K A 502       4.947  -3.374   4.719  0.00  0.00    -0.003 A 
ATOM     42  C26 O6K A 502       5.598  -2.634   3.730  0.00  0.00    -0.000 A 
ATOM     43  C25 O6K A 502       5.120  -2.638   2.413  0.00  0.00    -0.000 A 
ATOM     44  C23 O6K A 502       3.987  -3.386   2.090  0.00  0.00    -0.000 A 
ATOM     45  C15 O6K A 502       3.340  -4.124   3.087  0.00  0.00    -0.003 A 
ENDBRANCH  39  40
ENDBRANCH  37  39
ENDBRANCH  34  35
BRANCH  34  46
ATOM     46  O40 O6K A 502      -1.327  -6.876   5.637  0.00  0.00    -0.211 OA
ATOM     47  H   O6K A 502      -1.041  -7.325   6.448  0.00  0.00    +0.000 HD
ENDBRANCH  34  46
ENDBRANCH  25  34
ENDBRANCH   3  25
TORSDOF 15
ENDMDL
MODEL 3
REMARK minimizedAffinity -5.98349667
REMARK minimizedRMSD -1
REMARK  Name = /home/tchapet/Post-Doc/ARTICLES-DOSSIERS-DES-ARTICLES-EN-REDACTION/NOUVELS-AXES-DE-RECHERCHE-A-REGARDER-URGEMMENT/ARTICLES-EN-REDACTIONS/ARTICLE_MVOTO/Paper2_JCIM/docking_rerun/calibration_outputs/6Y2F_O6K_native.pdb
REMARK  18 active torsions:
REMARK  status: ('A' for Active; 'I' for Inactive)
REMARK    1  A    between atoms: C24_2  and  O25_3
REMARK    2  A    between atoms: C24_2  and  N23_8
REMARK    3  A    between atoms: O25_3  and  C27_4
REMARK    4  A    between atoms: C27_4  and  C31_5
REMARK    5  A    between atoms: C27_4  and  C32_6
REMARK    6  A    between atoms: C27_4  and  C33_7
REMARK    7  A    between atoms: N15_15  and  C20_16
REMARK    8  A    between atoms: C20_16  and  C22_17
REMARK    9  A    between atoms: C20_16  and  C36_21
REMARK   10  A    between atoms: C22_17  and  C29_18
REMARK   11  A    between atoms: N38_23  and  C40_24
REMARK   12  A    between atoms: C40_24  and  C42_25
REMARK   13  A    between atoms: C40_24  and  C57_32
REMARK   14  A    between atoms: C42_25  and  C45_26
REMARK   15  A    between atoms: C57_32  and  O40_33
REMARK   16  A    between atoms: C57_32  and  C35_34
REMARK   17  A    between atoms: N36_36  and  C13_37
REMARK   18  A    between atoms: C13_37  and  C14_38
REMARK                            x       y       z     vdW  Elec       q    Type
REMARK                         _______ _______ _______ _____ _____    ______ ____
ROOT
ATOM      1  C36 O6K A 502     -19.031 -26.581 -10.823  0.00  0.00    +0.260 C 
ATOM      2  O37 O6K A 502     -18.774 -27.125 -11.898  0.00  0.00    -0.272 OA
ATOM      3  N38 O6K A 502     -18.258 -25.623 -10.285  0.00  0.00    -0.203 N 
ATOM      4  H   O6K A 502     -18.548 -25.200  -9.445  0.00  0.00    +0.000 HD
ENDROOT
BRANCH   1   5
ATOM      5  C20 O6K A 502     -20.251 -26.991 -10.043  0.00  0.00    +0.158 C 
BRANCH   5  13
ATOM      6  N23 O6K A 502     -21.802 -23.162  -7.526  0.00  0.00    -0.142 NA
ATOM      7  C19 O6K A 502     -21.882 -23.833  -8.699  0.00  0.00    +0.112 C 
ATOM      8  C21 O6K A 502     -21.061 -25.053  -8.788  0.00  0.00    +0.265 C 
ATOM      9  O22 O6K A 502     -20.338 -25.429  -7.817  0.00  0.00    -0.268 OA
ATOM     10  C18 O6K A 502     -22.635 -23.438  -9.822  0.00  0.00    +0.075 C 
ATOM     11  C17 O6K A 502     -22.599 -24.195 -10.975  0.00  0.00    -0.004 C 
ATOM     12  C16 O6K A 502     -21.839 -25.358 -11.028  0.00  0.00    +0.064 C 
ATOM     13  N15 O6K A 502     -21.097 -25.797  -9.983  0.00  0.00    -0.246 N 
BRANCH   6  15
ATOM     14  O26 O6K A 502     -21.839 -20.890  -7.603  0.00  0.00    -0.224 OA
ATOM     15  C24 O6K A 502     -22.309 -21.958  -7.244  0.00  0.00    +0.425 C 
BRANCH  15  16
ATOM     16  O25 O6K A 502     -23.527 -21.988  -6.455  0.00  0.00    -0.441 OA
BRANCH  16  17
ATOM     17  C27 O6K A 502     -24.766 -21.341  -6.798  0.00  0.00    +0.138 C 
ATOM     18  C31 O6K A 502     -25.897 -22.042  -6.026  0.00  0.00    +0.044 C 
ATOM     19  C32 O6K A 502     -24.672 -19.856  -6.416  0.00  0.00    +0.044 C 
ATOM     20  C33 O6K A 502     -25.021 -21.414  -8.310  0.00  0.00    +0.044 C 
ENDBRANCH  16  17
ENDBRANCH  15  16
ENDBRANCH   6  15
ENDBRANCH   5  13
BRANCH   5  21
ATOM     21  C22 O6K A 502     -20.937 -28.211 -10.673  0.00  0.00    +0.030 C 
BRANCH  21  22
ATOM     22  C29 O6K A 502     -21.520 -29.130  -9.598  0.00  0.00    +0.002 C 
ATOM     23  C34 O6K A 502     -22.575 -28.581  -8.643  0.00  0.00    +0.000 C 
ATOM     24  C30 O6K A 502     -23.006 -29.466  -9.806  0.00  0.00    +0.000 C 
ENDBRANCH  21  22
ENDBRANCH   5  21
ENDBRANCH   1   5
BRANCH   3  25
ATOM     25  C40 O6K A 502     -17.032 -25.190 -10.881  0.00  0.00    +0.135 C 
BRANCH  25  26
ATOM     26  C42 O6K A 502     -17.180 -23.916 -11.772  0.00  0.00    +0.034 C 
BRANCH  26  27
ATOM     27  C45 O6K A 502     -18.621 -23.503 -11.764  0.00  0.00    +0.082 C 
ATOM     28  C47 O6K A 502     -19.039 -22.451 -10.759  0.00  0.00    +0.241 C 
ATOM     29  O48 O6K A 502     -18.620 -22.429  -9.605  0.00  0.00    -0.273 OA
ATOM     30  N49 O6K A 502     -19.943 -21.632 -11.322  0.00  0.00    -0.205 N 
ATOM     31  C51 O6K A 502     -20.290 -22.016 -12.694  0.00  0.00    +0.116 C 
ATOM     32  C54 O6K A 502     -19.106 -22.893 -13.084  0.00  0.00    +0.033 C 
ATOM     33  H   O6K A 502     -20.332 -20.853 -10.860  0.00  0.00    +0.000 HD
ENDBRANCH  26  27
ENDBRANCH  25  26
BRANCH  25  34
ATOM     34  C57 O6K A 502     -16.139 -25.131  -9.646  0.00  0.00    +0.249 C 
BRANCH  34  35
ATOM     35  C35 O6K A 502     -15.875 -26.500  -9.164  0.00  0.00    +0.274 C 
ATOM     36  O41 O6K A 502     -15.592 -27.333 -10.005  0.00  0.00    -0.271 OA
ATOM     37  N36 O6K A 502     -15.945 -26.599  -7.804  0.00  0.00    -0.198 N 
ATOM     38  H   O6K A 502     -16.184 -25.786  -7.304  0.00  0.00    +0.000 HD
BRANCH  37  39
ATOM     39  C13 O6K A 502     -15.693 -27.814  -7.029  0.00  0.00    +0.142 C 
BRANCH  39  40
ATOM     40  C14 O6K A 502     -16.992 -28.398  -6.487  0.00  0.00    -0.001 A 
ATOM     41  C28 O6K A 502     -17.010 -29.208  -5.352  0.00  0.00    -0.003 A 
ATOM     42  C26 O6K A 502     -18.213 -29.743  -4.885  0.00  0.00    -0.000 A 
ATOM     43  C25 O6K A 502     -19.414 -29.469  -5.551  0.00  0.00    -0.000 A 
ATOM     44  C23 O6K A 502     -19.407 -28.660  -6.688  0.00  0.00    -0.000 A 
ATOM     45  C15 O6K A 502     -18.198 -28.129  -7.149  0.00  0.00    -0.003 A 
ENDBRANCH  39  40
ENDBRANCH  37  39
ENDBRANCH  34  35
BRANCH  34  46
ATOM     46  O40 O6K A 502     -16.738 -24.485  -8.460  0.00  0.00    -0.211 OA
ATOM     47  H   O6K A 502     -17.508 -24.996  -8.167  0.00  0.00    +0.000 HD
ENDBRANCH  34  46
ENDBRANCH  25  34
ENDBRANCH   3  25
TORSDOF 15
ENDMDL
MODEL 4
REMARK minimizedAffinity -5.90905857
REMARK minimizedRMSD -1
REMARK  Name = /home/tchapet/Post-Doc/ARTICLES-DOSSIERS-DES-ARTICLES-EN-REDACTION/NOUVELS-AXES-DE-RECHERCHE-A-REGARDER-URGEMMENT/ARTICLES-EN-REDACTIONS/ARTICLE_MVOTO/Paper2_JCIM/docking_rerun/calibration_outputs/6Y2F_O6K_native.pdb
REMARK  18 active torsions:
REMARK  status: ('A' for Active; 'I' for Inactive)
REMARK    1  A    between atoms: C24_2  and  O25_3
REMARK    2  A    between atoms: C24_2  and  N23_8
REMARK    3  A    between atoms: O25_3  and  C27_4
REMARK    4  A    between atoms: C27_4  and  C31_5
REMARK    5  A    between atoms: C27_4  and  C32_6
REMARK    6  A    between atoms: C27_4  and  C33_7
REMARK    7  A    between atoms: N15_15  and  C20_16
REMARK    8  A    between atoms: C20_16  and  C22_17
REMARK    9  A    between atoms: C20_16  and  C36_21
REMARK   10  A    between atoms: C22_17  and  C29_18
REMARK   11  A    between atoms: N38_23  and  C40_24
REMARK   12  A    between atoms: C40_24  and  C42_25
REMARK   13  A    between atoms: C40_24  and  C57_32
REMARK   14  A    between atoms: C42_25  and  C45_26
REMARK   15  A    between atoms: C57_32  and  O40_33
REMARK   16  A    between atoms: C57_32  and  C35_34
REMARK   17  A    between atoms: N36_36  and  C13_37
REMARK   18  A    between atoms: C13_37  and  C14_38
REMARK                            x       y       z     vdW  Elec       q    Type
REMARK                         _______ _______ _______ _____ _____    ______ ____
ROOT
ATOM      1  C36 O6K A 502      -0.307 -12.224   4.711  0.00  0.00    +0.260 C 
ATOM      2  O37 O6K A 502      -1.525 -12.244   4.533  0.00  0.00    -0.272 OA
ATOM      3  N38 O6K A 502       0.580 -12.159   3.704  0.00  0.00    -0.203 N 
ATOM      4  H   O6K A 502       1.537 -12.101   3.922  0.00  0.00    +0.000 HD
ENDROOT
BRANCH   1   5
ATOM      5  C20 O6K A 502       0.252 -12.285   6.108  0.00  0.00    +0.158 C 
BRANCH   5  13
ATOM      6  N23 O6K A 502       3.152  -8.420   6.343  0.00  0.00    -0.142 NA
ATOM      7  C19 O6K A 502       1.922  -8.911   6.625  0.00  0.00    +0.112 C 
ATOM      8  C21 O6K A 502       1.701 -10.318   6.250  0.00  0.00    +0.265 C 
ATOM      9  O22 O6K A 502       2.617 -11.003   5.701  0.00  0.00    -0.268 OA
ATOM     10  C18 O6K A 502       0.858  -8.185   7.194  0.00  0.00    +0.075 C 
ATOM     11  C17 O6K A 502      -0.362  -8.797   7.396  0.00  0.00    -0.004 C 
ATOM     12  C16 O6K A 502      -0.541 -10.135   7.060  0.00  0.00    +0.064 C 
ATOM     13  N15 O6K A 502       0.442 -10.892   6.515  0.00  0.00    -0.246 N 
BRANCH   6  15
ATOM     14  O26 O6K A 502       3.859  -6.570   7.460  0.00  0.00    -0.224 OA
ATOM     15  C24 O6K A 502       3.557  -7.149   6.429  0.00  0.00    +0.425 C 
BRANCH  15  16
ATOM     16  O25 O6K A 502       3.636  -6.456   5.156  0.00  0.00    -0.441 OA
BRANCH  16  17
ATOM     17  C27 O6K A 502       2.551  -5.769   4.506  0.00  0.00    +0.138 C 
ATOM     18  C31 O6K A 502       1.653  -5.159   5.597  0.00  0.00    +0.044 C 
ATOM     19  C32 O6K A 502       3.131  -4.678   3.593  0.00  0.00    +0.044 C 
ATOM     20  C33 O6K A 502       1.744  -6.730   3.623  0.00  0.00    +0.044 C 
ENDBRANCH  16  17
ENDBRANCH  15  16
ENDBRANCH   6  15
ENDBRANCH   5  13
BRANCH   5  21
ATOM     21  C22 O6K A 502      -0.661 -13.090   7.042  0.00  0.00    +0.030 C 
BRANCH  21  22
ATOM     22  C29 O6K A 502      -0.564 -14.588   6.748  0.00  0.00    +0.002 C 
ATOM     23  C34 O6K A 502      -0.934 -15.586   7.841  0.00  0.00    +0.000 C 
ATOM     24  C30 O6K A 502      -1.923 -15.305   6.717  0.00  0.00    +0.000 C 
ENDBRANCH  21  22
ENDBRANCH   5  21
ENDBRANCH   1   5
BRANCH   3  25
ATOM     25  C40 O6K A 502       0.191 -12.170   2.327  0.00  0.00    +0.135 C 
BRANCH  25  26
ATOM     26  C42 O6K A 502       0.714 -10.944   1.514  0.00  0.00    +0.034 C 
BRANCH  26  27
ATOM     27  C45 O6K A 502      -0.425  -9.988   1.323  0.00  0.00    +0.082 C 
ATOM     28  C47 O6K A 502      -0.182  -8.779   0.447  0.00  0.00    +0.241 C 
ATOM     29  O48 O6K A 502       0.865  -8.137   0.473  0.00  0.00    -0.273 OA
ATOM     30  N49 O6K A 502      -1.284  -8.525  -0.278  0.00  0.00    -0.205 N 
ATOM     31  C51 O6K A 502      -2.391  -9.441   0.020  0.00  0.00    +0.116 C 
ATOM     32  C54 O6K A 502      -1.664 -10.612   0.669  0.00  0.00    +0.033 C 
ATOM     33  H   O6K A 502      -1.343  -7.800  -0.942  0.00  0.00    +0.000 HD
ENDBRANCH  26  27
ENDBRANCH  25  26
BRANCH  25  34
ATOM     34  C57 O6K A 502       0.647 -13.571   1.931  0.00  0.00    +0.249 C 
BRANCH  34  35
ATOM     35  C35 O6K A 502       0.887 -13.618   0.476  0.00  0.00    +0.274 C 
ATOM     36  O41 O6K A 502       2.046 -13.552   0.110  0.00  0.00    -0.271 OA
ATOM     37  N36 O6K A 502      -0.263 -13.784  -0.240  0.00  0.00    -0.198 N 
ATOM     38  H   O6K A 502      -1.107 -13.824   0.265  0.00  0.00    +0.000 HD
BRANCH  37  39
ATOM     39  C13 O6K A 502      -0.345 -13.907  -1.695  0.00  0.00    +0.142 C 
BRANCH  39  40
ATOM     40  C14 O6K A 502      -0.631 -12.559  -2.345  0.00  0.00    -0.001 A 
ATOM     41  C28 O6K A 502       0.354 -11.578  -2.453  0.00  0.00    -0.003 A 
ATOM     42  C26 O6K A 502       0.061 -10.345  -3.041  0.00  0.00    -0.000 A 
ATOM     43  C25 O6K A 502      -1.226 -10.082  -3.529  0.00  0.00    -0.000 A 
ATOM     44  C23 O6K A 502      -2.219 -11.058  -3.425  0.00  0.00    -0.000 A 
ATOM     45  C15 O6K A 502      -1.917 -12.289  -2.834  0.00  0.00    -0.003 A 
ENDBRANCH  39  40
ENDBRANCH  37  39
ENDBRANCH  34  35
BRANCH  34  46
ATOM     46  O40 O6K A 502      -0.353 -14.642   2.124  0.00  0.00    -0.211 OA
ATOM     47  H   O6K A 502      -1.119 -14.476   1.554  0.00  0.00    +0.000 HD
ENDBRANCH  34  46
ENDBRANCH  25  34
ENDBRANCH   3  25
TORSDOF 15
ENDMDL
MODEL 5
REMARK minimizedAffinity -5.87228537
REMARK minimizedRMSD -1
REMARK  Name = /home/tchapet/Post-Doc/ARTICLES-DOSSIERS-DES-ARTICLES-EN-REDACTION/NOUVELS-AXES-DE-RECHERCHE-A-REGARDER-URGEMMENT/ARTICLES-EN-REDACTIONS/ARTICLE_MVOTO/Paper2_JCIM/docking_rerun/calibration_outputs/6Y2F_O6K_native.pdb
REMARK  18 active torsions:
REMARK  status: ('A' for Active; 'I' for Inactive)
REMARK    1  A    between atoms: C24_2  and  O25_3
REMARK    2  A    between atoms: C24_2  and  N23_8
REMARK    3  A    between atoms: O25_3  and  C27_4
REMARK    4  A    between atoms: C27_4  and  C31_5
REMARK    5  A    between atoms: C27_4  and  C32_6
REMARK    6  A    between atoms: C27_4  and  C33_7
REMARK    7  A    between atoms: N15_15  and  C20_16
REMARK    8  A    between atoms: C20_16  and  C22_17
REMARK    9  A    between atoms: C20_16  and  C36_21
REMARK   10  A    between atoms: C22_17  and  C29_18
REMARK   11  A    between atoms: N38_23  and  C40_24
REMARK   12  A    between atoms: C40_24  and  C42_25
REMARK   13  A    between atoms: C40_24  and  C57_32
REMARK   14  A    between atoms: C42_25  and  C45_26
REMARK   15  A    between atoms: C57_32  and  O40_33
REMARK   16  A    between atoms: C57_32  and  C35_34
REMARK   17  A    between atoms: N36_36  and  C13_37
REMARK   18  A    between atoms: C13_37  and  C14_38
REMARK                            x       y       z     vdW  Elec       q    Type
REMARK                         _______ _______ _______ _____ _____    ______ ____
ROOT
ATOM      1  C36 O6K A 502       2.529  -8.718   6.307  0.00  0.00    +0.260 C 
ATOM      2  O37 O6K A 502       2.379  -9.511   5.377  0.00  0.00    -0.272 OA
ATOM      3  N38 O6K A 502       1.501  -8.206   7.005  0.00  0.00    -0.203 N 
ATOM      4  H   O6K A 502       1.697  -7.613   7.765  0.00  0.00    +0.000 HD
ENDROOT
BRANCH   1   5
ATOM      5  C20 O6K A 502       3.911  -8.271   6.703  0.00  0.00    +0.158 C 
BRANCH   5  13
ATOM      6  N23 O6K A 502       4.893  -5.015   3.263  0.00  0.00    -0.142 NA
ATOM      7  C19 O6K A 502       4.488  -5.200   4.542  0.00  0.00    +0.112 C 
ATOM      8  C21 O6K A 502       4.412  -6.602   4.985  0.00  0.00    +0.265 C 
ATOM      9  O22 O6K A 502       4.711  -7.555   4.203  0.00  0.00    -0.268 OA
ATOM     10  C18 O6K A 502       4.106  -4.183   5.438  0.00  0.00    +0.075 C 
ATOM     11  C17 O6K A 502       3.676  -4.510   6.708  0.00  0.00    -0.004 C 
ATOM     12  C16 O6K A 502       3.637  -5.840   7.115  0.00  0.00    +0.064 C 
ATOM     13  N15 O6K A 502       3.996  -6.865   6.306  0.00  0.00    -0.246 N 
BRANCH   6  15
ATOM     14  O26 O6K A 502       3.899  -3.275   2.188  0.00  0.00    -0.224 OA
ATOM     15  C24 O6K A 502       4.893  -3.871   2.570  0.00  0.00    +0.425 C 
BRANCH  15  16
ATOM     16  O25 O6K A 502       6.213  -3.338   2.291  0.00  0.00    -0.441 OA
BRANCH  16  17
ATOM     17  C27 O6K A 502       6.994  -2.521   3.183  0.00  0.00    +0.138 C 
ATOM     18  C31 O6K A 502       7.783  -3.457   4.115  0.00  0.00    +0.044 C 
ATOM     19  C32 O6K A 502       7.939  -1.642   2.350  0.00  0.00    +0.044 C 
ATOM     20  C33 O6K A 502       6.092  -1.586   4.000  0.00  0.00    +0.044 C 
ENDBRANCH  16  17
ENDBRANCH  15  16
ENDBRANCH   6  15
ENDBRANCH   5  13
BRANCH   5  21
ATOM     21  C22 O6K A 502       4.174  -8.516   8.195  0.00  0.00    +0.030 C 
BRANCH  21  22
ATOM     22  C29 O6K A 502       4.380 -10.005   8.480  0.00  0.00    +0.002 C 
ATOM     23  C34 O6K A 502       4.723 -10.451   9.898  0.00  0.00    +0.000 C 
ATOM     24  C30 O6K A 502       3.299 -10.621   9.383  0.00  0.00    +0.000 C 
ENDBRANCH  21  22
ENDBRANCH   5  21
ENDBRANCH   1   5
BRANCH   3  25
ATOM     25  C40 O6K A 502       0.134  -8.486   6.690  0.00  0.00    +0.135 C 
BRANCH  25  26
ATOM     26  C42 O6K A 502      -0.630  -9.246   7.821  0.00  0.00    +0.034 C 
BRANCH  26  27
ATOM     27  C45 O6K A 502      -0.951 -10.624   7.325  0.00  0.00    +0.082 C 
ATOM     28  C47 O6K A 502      -1.388 -10.762   5.883  0.00  0.00    +0.241 C 
ATOM     29  O48 O6K A 502      -2.147  -9.966   5.338  0.00  0.00    -0.273 OA
ATOM     30  N49 O6K A 502      -0.864 -11.885   5.364  0.00  0.00    -0.205 N 
ATOM     31  C51 O6K A 502      -0.081 -12.656   6.336  0.00  0.00    +0.116 C 
ATOM     32  C54 O6K A 502       0.225 -11.606   7.397  0.00  0.00    +0.033 C 
ATOM     33  H   O6K A 502      -0.992 -12.162   4.428  0.00  0.00    +0.000 HD
ENDBRANCH  26  27
ENDBRANCH  25  26
BRANCH  25  34
ATOM     34  C57 O6K A 502      -0.338  -7.095   6.282  0.00  0.00    +0.249 C 
BRANCH  34  35
ATOM     35  C35 O6K A 502       0.200  -6.763   4.949  0.00  0.00    +0.274 C 
ATOM     36  O41 O6K A 502       0.854  -5.740   4.862  0.00  0.00    -0.271 OA
ATOM     37  N36 O6K A 502      -0.090  -7.714   4.015  0.00  0.00    -0.198 N 
ATOM     38  H   O6K A 502      -0.633  -8.482   4.306  0.00  0.00    +0.000 HD
BRANCH  37  39
ATOM     39  C13 O6K A 502       0.340  -7.688   2.617  0.00  0.00    +0.142 C 
BRANCH  39  40
ATOM     40  C14 O6K A 502      -0.329  -8.799   1.816  0.00  0.00    -0.001 A 
ATOM     41  C28 O6K A 502      -1.070  -8.524   0.666  0.00  0.00    -0.003 A 
ATOM     42  C26 O6K A 502      -1.686  -9.560  -0.041  0.00  0.00    -0.000 A 
ATOM     43  C25 O6K A 502      -1.563 -10.885   0.397  0.00  0.00    -0.000 A 
ATOM     44  C23 O6K A 502      -0.824 -11.170   1.546  0.00  0.00    -0.000 A 
ATOM     45  C15 O6K A 502      -0.212 -10.127   2.249  0.00  0.00    -0.003 A 
ENDBRANCH  39  40
ENDBRANCH  37  39
ENDBRANCH  34  35
BRANCH  34  46
ATOM     46  O40 O6K A 502       0.166  -5.984   7.115  0.00  0.00    -0.211 OA
ATOM     47  H   O6K A 502       1.131  -5.934   7.039  0.00  0.00    +0.000 HD
ENDBRANCH  34  46
ENDBRANCH  25  34
ENDBRANCH   3  25
TORSDOF 15
ENDMDL
MODEL 6
REMARK minimizedAffinity -5.86550903
REMARK minimizedRMSD -1
REMARK  Name = /home/tchapet/Post-Doc/ARTICLES-DOSSIERS-DES-ARTICLES-EN-REDACTION/NOUVELS-AXES-DE-RECHERCHE-A-REGARDER-URGEMMENT/ARTICLES-EN-REDACTIONS/ARTICLE_MVOTO/Paper2_JCIM/docking_rerun/calibration_outputs/6Y2F_O6K_native.pdb
REMARK  18 active torsions:
REMARK  status: ('A' for Active; 'I' for Inactive)
REMARK    1  A    between atoms: C24_2  and  O25_3
REMARK    2  A    between atoms: C24_2  and  N23_8
REMARK    3  A    between atoms: O25_3  and  C27_4
REMARK    4  A    between atoms: C27_4  and  C31_5
REMARK    5  A    between atoms: C27_4  and  C32_6
REMARK    6  A    between atoms: C27_4  and  C33_7
REMARK    7  A    between atoms: N15_15  and  C20_16
REMARK    8  A    between atoms: C20_16  and  C22_17
REMARK    9  A    between atoms: C20_16  and  C36_21
REMARK   10  A    between atoms: C22_17  and  C29_18
REMARK   11  A    between atoms: N38_23  and  C40_24
REMARK   12  A    between atoms: C40_24  and  C42_25
REMARK   13  A    between atoms: C40_24  and  C57_32
REMARK   14  A    between atoms: C42_25  and  C45_26
REMARK   15  A    between atoms: C57_32  and  O40_33
REMARK   16  A    between atoms: C57_32  and  C35_34
REMARK   17  A    between atoms: N36_36  and  C13_37
REMARK   18  A    between atoms: C13_37  and  C14_38
REMARK                            x       y       z     vdW  Elec       q    Type
REMARK                         _______ _______ _______ _____ _____    ______ ____
ROOT
ATOM      1  C36 O6K A 502     -22.403 -31.887   6.294  0.00  0.00    +0.260 C 
ATOM      2  O37 O6K A 502     -22.861 -32.505   7.255  0.00  0.00    -0.272 OA
ATOM      3  N38 O6K A 502     -22.689 -32.201   5.019  0.00  0.00    -0.203 N 
ATOM      4  H   O6K A 502     -22.323 -31.635   4.301  0.00  0.00    +0.000 HD
ENDROOT
BRANCH   1   5
ATOM      5  C20 O6K A 502     -21.467 -30.729   6.517  0.00  0.00    +0.158 C 
BRANCH   5  13
ATOM      6  N23 O6K A 502     -19.032 -31.327  10.654  0.00  0.00    -0.142 NA
ATOM      7  C19 O6K A 502     -19.067 -31.606   9.329  0.00  0.00    +0.112 C 
ATOM      8  C21 O6K A 502     -20.209 -31.038   8.593  0.00  0.00    +0.265 C 
ATOM      9  O22 O6K A 502     -21.087 -30.337   9.182  0.00  0.00    -0.268 OA
ATOM     10  C18 O6K A 502     -18.144 -32.411   8.634  0.00  0.00    +0.075 C 
ATOM     11  C17 O6K A 502     -18.316 -32.648   7.286  0.00  0.00    -0.004 C 
ATOM     12  C16 O6K A 502     -19.387 -32.079   6.604  0.00  0.00    +0.064 C 
ATOM     13  N15 O6K A 502     -20.307 -31.291   7.210  0.00  0.00    -0.246 N 
BRANCH   6  15
ATOM     14  O26 O6K A 502     -18.371 -32.906  12.151  0.00  0.00    -0.224 OA
ATOM     15  C24 O6K A 502     -18.208 -31.845  11.570  0.00  0.00    +0.425 C 
BRANCH  15  16
ATOM     16  O25 O6K A 502     -17.032 -31.040  11.843  0.00  0.00    -0.441 OA
BRANCH  16  17
ATOM     17  C27 O6K A 502     -16.619 -30.570  13.140  0.00  0.00    +0.138 C 
ATOM     18  C31 O6K A 502     -16.000 -31.756  13.900  0.00  0.00    +0.044 C 
ATOM     19  C32 O6K A 502     -15.598 -29.437  12.955  0.00  0.00    +0.044 C 
ATOM     20  C33 O6K A 502     -17.811 -29.997  13.919  0.00  0.00    +0.044 C 
ENDBRANCH  16  17
ENDBRANCH  15  16
ENDBRANCH   6  15
ENDBRANCH   5  13
BRANCH   5  21
ATOM     21  C22 O6K A 502     -21.124 -30.023   5.198  0.00  0.00    +0.030 C 
BRANCH  21  22
ATOM     22  C29 O6K A 502     -22.158 -28.944   4.869  0.00  0.00    +0.002 C 
ATOM     23  C34 O6K A 502     -21.751 -27.771   3.981  0.00  0.00    +0.000 C 
ATOM     24  C30 O6K A 502     -22.572 -28.910   3.388  0.00  0.00    +0.000 C 
ENDBRANCH  21  22
ENDBRANCH   5  21
ENDBRANCH   1   5
BRANCH   3  25
ATOM     25  C40 O6K A 502     -23.503 -33.320   4.660  0.00  0.00    +0.135 C 
BRANCH  25  26
ATOM     26  C42 O6K A 502     -25.029 -32.994   4.593  0.00  0.00    +0.034 C 
BRANCH  26  27
ATOM     27  C45 O6K A 502     -25.186 -31.508   4.468  0.00  0.00    +0.082 C 
ATOM     28  C47 O6K A 502     -25.734 -30.972   3.163  0.00  0.00    +0.241 C 
ATOM     29  O48 O6K A 502     -25.410 -31.423   2.069  0.00  0.00    -0.273 OA
ATOM     30  N49 O6K A 502     -26.551 -29.935   3.416  0.00  0.00    -0.205 N 
ATOM     31  C51 O6K A 502     -26.631 -29.602   4.843  0.00  0.00    +0.116 C 
ATOM     32  C54 O6K A 502     -26.143 -30.890   5.495  0.00  0.00    +0.033 C 
ATOM     33  H   O6K A 502     -27.045 -29.449   2.717  0.00  0.00    +0.000 HD
ENDBRANCH  26  27
ENDBRANCH  25  26
BRANCH  25  34
ATOM     34  C57 O6K A 502     -22.787 -33.778   3.394  0.00  0.00    +0.249 C 
BRANCH  34  35
ATOM     35  C35 O6K A 502     -21.328 -33.719   3.604  0.00  0.00    +0.274 C 
ATOM     36  O41 O6K A 502     -20.881 -34.370   4.529  0.00  0.00    -0.271 OA
ATOM     37  N36 O6K A 502     -20.694 -32.959   2.664  0.00  0.00    -0.198 N 
ATOM     38  H   O6K A 502     -21.255 -32.519   1.985  0.00  0.00    +0.000 HD
BRANCH  37  39
ATOM     39  C13 O6K A 502     -19.250 -32.742   2.583  0.00  0.00    +0.142 C 
BRANCH  39  40
ATOM     40  C14 O6K A 502     -18.914 -31.256   2.612  0.00  0.00    -0.001 A 
ATOM     41  C28 O6K A 502     -19.540 -30.350   1.755  0.00  0.00    -0.003 A 
ATOM     42  C26 O6K A 502     -19.203 -28.995   1.792  0.00  0.00    -0.000 A 
ATOM     43  C25 O6K A 502     -18.234 -28.532   2.691  0.00  0.00    -0.000 A 
ATOM     44  C23 O6K A 502     -17.602 -29.430   3.552  0.00  0.00    -0.000 A 
ATOM     45  C15 O6K A 502     -17.945 -30.785   3.508  0.00  0.00    -0.003 A 
ENDBRANCH  39  40
ENDBRANCH  37  39
ENDBRANCH  34  35
BRANCH  34  46
ATOM     46  O40 O6K A 502     -22.975 -32.913   2.210  0.00  0.00    -0.211 OA
ATOM     47  H   O6K A 502     -22.598 -32.037   2.387  0.00  0.00    +0.000 HD
ENDBRANCH  34  46
ENDBRANCH  25  34
ENDBRANCH   3  25
TORSDOF 15
ENDMDL
MODEL 7
REMARK minimizedAffinity -5.84678602
REMARK minimizedRMSD -1
REMARK  Name = /home/tchapet/Post-Doc/ARTICLES-DOSSIERS-DES-ARTICLES-EN-REDACTION/NOUVELS-AXES-DE-RECHERCHE-A-REGARDER-URGEMMENT/ARTICLES-EN-REDACTIONS/ARTICLE_MVOTO/Paper2_JCIM/docking_rerun/calibration_outputs/6Y2F_O6K_native.pdb
REMARK  18 active torsions:
REMARK  status: ('A' for Active; 'I' for Inactive)
REMARK    1  A    between atoms: C24_2  and  O25_3
REMARK    2  A    between atoms: C24_2  and  N23_8
REMARK    3  A    between atoms: O25_3  and  C27_4
REMARK    4  A    between atoms: C27_4  and  C31_5
REMARK    5  A    between atoms: C27_4  and  C32_6
REMARK    6  A    between atoms: C27_4  and  C33_7
REMARK    7  A    between atoms: N15_15  and  C20_16
REMARK    8  A    between atoms: C20_16  and  C22_17
REMARK    9  A    between atoms: C20_16  and  C36_21
REMARK   10  A    between atoms: C22_17  and  C29_18
REMARK   11  A    between atoms: N38_23  and  C40_24
REMARK   12  A    between atoms: C40_24  and  C42_25
REMARK   13  A    between atoms: C40_24  and  C57_32
REMARK   14  A    between atoms: C42_25  and  C45_26
REMARK   15  A    between atoms: C57_32  and  O40_33
REMARK   16  A    between atoms: C57_32  and  C35_34
REMARK   17  A    between atoms: N36_36  and  C13_37
REMARK   18  A    between atoms: C13_37  and  C14_38
REMARK                            x       y       z     vdW  Elec       q    Type
REMARK                         _______ _______ _______ _____ _____    ______ ____
ROOT
ATOM      1  C36 O6K A 502       2.382  -9.263   4.642  0.00  0.00    +0.260 C 
ATOM      2  O37 O6K A 502       3.362  -8.845   4.025  0.00  0.00    -0.272 OA
ATOM      3  N38 O6K A 502       1.241  -9.636   4.037  0.00  0.00    -0.203 N 
ATOM      4  H   O6K A 502       0.514 -10.003   4.589  0.00  0.00    +0.000 HD
ENDROOT
BRANCH   1   5
ATOM      5  C20 O6K A 502       2.422  -9.366   6.143  0.00  0.00    +0.158 C 
BRANCH   5  13
ATOM      6  N23 O6K A 502      -0.825 -12.747   7.337  0.00  0.00    -0.142 NA
ATOM      7  C19 O6K A 502       0.475 -12.501   7.048  0.00  0.00    +0.112 C 
ATOM      8  C21 O6K A 502       0.803 -11.095   6.758  0.00  0.00    +0.265 C 
ATOM      9  O22 O6K A 502      -0.089 -10.193   6.785  0.00  0.00    -0.268 OA
ATOM     10  C18 O6K A 502       1.495 -13.468   6.964  0.00  0.00    +0.075 C 
ATOM     11  C17 O6K A 502       2.777 -13.087   6.621  0.00  0.00    -0.004 C 
ATOM     12  C16 O6K A 502       3.071 -11.750   6.378  0.00  0.00    +0.064 C 
ATOM     13  N15 O6K A 502       2.138 -10.770   6.447  0.00  0.00    -0.246 N 
BRANCH   6  15
ATOM     14  O26 O6K A 502      -1.855 -14.622   6.566  0.00  0.00    -0.224 OA
ATOM     15  C24 O6K A 502      -1.413 -13.940   7.476  0.00  0.00    +0.425 C 
BRANCH  15  16
ATOM     16  O25 O6K A 502      -1.489 -14.416   8.845  0.00  0.00    -0.441 OA
BRANCH  16  17
ATOM     17  C27 O6K A 502      -0.701 -15.480   9.409  0.00  0.00    +0.138 C 
ATOM     18  C31 O6K A 502      -1.596 -16.271  10.379  0.00  0.00    +0.044 C 
ATOM     19  C32 O6K A 502      -0.191 -16.376   8.270  0.00  0.00    +0.044 C 
ATOM     20  C33 O6K A 502       0.526 -14.922  10.144  0.00  0.00    +0.044 C 
ENDBRANCH  16  17
ENDBRANCH  15  16
ENDBRANCH   6  15
ENDBRANCH   5  13
BRANCH   5  21
ATOM     21  C22 O6K A 502       3.760  -8.864   6.704  0.00  0.00    +0.030 C 
BRANCH  21  22
ATOM     22  C29 O6K A 502       3.631  -8.493   8.183  0.00  0.00    +0.002 C 
ATOM     23  C34 O6K A 502       3.887  -9.560   9.242  0.00  0.00    +0.000 C 
ATOM     24  C30 O6K A 502       4.963  -8.523   8.950  0.00  0.00    +0.000 C 
ENDBRANCH  21  22
ENDBRANCH   5  21
ENDBRANCH   1   5
BRANCH   3  25
ATOM     25  C40 O6K A 502       1.038  -9.520   2.626  0.00  0.00    +0.135 C 
BRANCH  25  26
ATOM     26  C42 O6K A 502       0.656 -10.867   1.932  0.00  0.00    +0.034 C 
BRANCH  26  27
ATOM     27  C45 O6K A 502       0.485 -11.909   2.996  0.00  0.00    +0.082 C 
ATOM     28  C47 O6K A 502      -0.874 -12.019   3.653  0.00  0.00    +0.241 C 
ATOM     29  O48 O6K A 502      -1.548 -11.040   3.956  0.00  0.00    -0.273 OA
ATOM     30  N49 O6K A 502      -1.157 -13.314   3.877  0.00  0.00    -0.205 N 
ATOM     31  C51 O6K A 502      -0.072 -14.217   3.476  0.00  0.00    +0.116 C 
ATOM     32  C54 O6K A 502       0.722 -13.345   2.510  0.00  0.00    +0.033 C 
ATOM     33  H   O6K A 502      -2.005 -13.625   4.269  0.00  0.00    +0.000 HD
ENDBRANCH  26  27
ENDBRANCH  25  26
BRANCH  25  34
ATOM     34  C57 O6K A 502       0.048  -8.361   2.591  0.00  0.00    +0.249 C 
BRANCH  34  35
ATOM     35  C35 O6K A 502       0.785  -7.085   2.518  0.00  0.00    +0.274 C 
ATOM     36  O41 O6K A 502       1.592  -6.969   1.615  0.00  0.00    -0.271 OA
ATOM     37  N36 O6K A 502       0.392  -6.198   3.477  0.00  0.00    -0.198 N 
ATOM     38  H   O6K A 502      -0.296  -6.497   4.115  0.00  0.00    +0.000 HD
BRANCH  37  39
ATOM     39  C13 O6K A 502       0.908  -4.838   3.637  0.00  0.00    +0.142 C 
BRANCH  39  40
ATOM     40  C14 O6K A 502       2.030  -4.794   4.667  0.00  0.00    -0.001 A 
ATOM     41  C28 O6K A 502       3.306  -4.336   4.336  0.00  0.00    -0.003 A 
ATOM     42  C26 O6K A 502       4.321  -4.320   5.296  0.00  0.00    -0.000 A 
ATOM     43  C25 O6K A 502       4.067  -4.763   6.601  0.00  0.00    -0.000 A 
ATOM     44  C23 O6K A 502       2.794  -5.223   6.941  0.00  0.00    -0.000 A 
ATOM     45  C15 O6K A 502       1.784  -5.237   5.974  0.00  0.00    -0.003 A 
ENDBRANCH  39  40
ENDBRANCH  37  39
ENDBRANCH  34  35
BRANCH  34  46
ATOM     46  O40 O6K A 502      -0.771  -8.188   3.808  0.00  0.00    -0.211 OA
ATOM     47  H   O6K A 502      -0.194  -7.979   4.559  0.00  0.00    +0.000 HD
ENDBRANCH  34  46
ENDBRANCH  25  34
ENDBRANCH   3  25
TORSDOF 15
ENDMDL
MODEL 8
REMARK minimizedAffinity -5.82533932
REMARK minimizedRMSD -1
REMARK  Name = /home/tchapet/Post-Doc/ARTICLES-DOSSIERS-DES-ARTICLES-EN-REDACTION/NOUVELS-AXES-DE-RECHERCHE-A-REGARDER-URGEMMENT/ARTICLES-EN-REDACTIONS/ARTICLE_MVOTO/Paper2_JCIM/docking_rerun/calibration_outputs/6Y2F_O6K_native.pdb
REMARK  18 active torsions:
REMARK  status: ('A' for Active; 'I' for Inactive)
REMARK    1  A    between atoms: C24_2  and  O25_3
REMARK    2  A    between atoms: C24_2  and  N23_8
REMARK    3  A    between atoms: O25_3  and  C27_4
REMARK    4  A    between atoms: C27_4  and  C31_5
REMARK    5  A    between atoms: C27_4  and  C32_6
REMARK    6  A    between atoms: C27_4  and  C33_7
REMARK    7  A    between atoms: N15_15  and  C20_16
REMARK    8  A    between atoms: C20_16  and  C22_17
REMARK    9  A    between atoms: C20_16  and  C36_21
REMARK   10  A    between atoms: C22_17  and  C29_18
REMARK   11  A    between atoms: N38_23  and  C40_24
REMARK   12  A    between atoms: C40_24  and  C42_25
REMARK   13  A    between atoms: C40_24  and  C57_32
REMARK   14  A    between atoms: C42_25  and  C45_26
REMARK   15  A    between atoms: C57_32  and  O40_33
REMARK   16  A    between atoms: C57_32  and  C35_34
REMARK   17  A    between atoms: N36_36  and  C13_37
REMARK   18  A    between atoms: C13_37  and  C14_38
REMARK                            x       y       z     vdW  Elec       q    Type
REMARK                         _______ _______ _______ _____ _____    ______ ____
ROOT
ATOM      1  C36 O6K A 502       0.039  -9.587   2.858  0.00  0.00    +0.260 C 
ATOM      2  O37 O6K A 502       1.195  -9.695   3.269  0.00  0.00    -0.272 OA
ATOM      3  N38 O6K A 502      -0.979  -9.181   3.636  0.00  0.00    -0.203 N 
ATOM      4  H   O6K A 502      -1.869  -9.076   3.229  0.00  0.00    +0.000 HD
ENDROOT
BRANCH   1   5
ATOM      5  C20 O6K A 502      -0.289  -9.928   1.429  0.00  0.00    +0.158 C 
BRANCH   5  13
ATOM      6  N23 O6K A 502       2.927 -12.695  -0.894  0.00  0.00    -0.142 NA
ATOM      7  C19 O6K A 502       1.931 -12.671   0.022  0.00  0.00    +0.112 C 
ATOM      8  C21 O6K A 502       1.320 -11.353   0.259  0.00  0.00    +0.265 C 
ATOM      9  O22 O6K A 502       1.718 -10.323  -0.365  0.00  0.00    -0.268 OA
ATOM     10  C18 O6K A 502       1.479 -13.774   0.772  0.00  0.00    +0.075 C 
ATOM     11  C17 O6K A 502       0.476 -13.607   1.706  0.00  0.00    -0.004 C 
ATOM     12  C16 O6K A 502      -0.106 -12.357   1.895  0.00  0.00    +0.064 C 
ATOM     13  N15 O6K A 502       0.278 -11.258   1.203  0.00  0.00    -0.246 N 
BRANCH   6  15
ATOM     14  O26 O6K A 502       4.398 -14.345  -0.360  0.00  0.00    -0.224 OA
ATOM     15  C24 O6K A 502       3.746 -13.713  -1.176  0.00  0.00    +0.425 C 
BRANCH  15  16
ATOM     16  O25 O6K A 502       3.813 -14.058  -2.584  0.00  0.00    -0.441 OA
BRANCH  16  17
ATOM     17  C27 O6K A 502       2.745 -14.635  -3.358  0.00  0.00    +0.138 C 
ATOM     18  C31 O6K A 502       3.363 -15.290  -4.606  0.00  0.00    +0.044 C 
ATOM     19  C32 O6K A 502       2.011 -15.672  -2.494  0.00  0.00    +0.044 C 
ATOM     20  C33 O6K A 502       1.723 -13.565  -3.765  0.00  0.00    +0.044 C 
ENDBRANCH  16  17
ENDBRANCH  15  16
ENDBRANCH   6  15
ENDBRANCH   5  13
BRANCH   5  21
ATOM     21  C22 O6K A 502      -1.798  -9.838   1.164  0.00  0.00    +0.030 C 
BRANCH  21  22
ATOM     22  C29 O6K A 502      -2.086  -9.032  -0.105  0.00  0.00    +0.002 C 
ATOM     23  C34 O6K A 502      -2.374  -9.773  -1.407  0.00  0.00    +0.000 C 
ATOM     24  C30 O6K A 502      -3.529  -9.172  -0.616  0.00  0.00    +0.000 C 
ENDBRANCH  21  22
ENDBRANCH   5  21
ENDBRANCH   1   5
BRANCH   3  25
ATOM     25  C40 O6K A 502      -0.825  -8.897   5.029  0.00  0.00    +0.135 C 
BRANCH  25  26
ATOM     26  C42 O6K A 502      -0.859  -7.373   5.368  0.00  0.00    +0.034 C 
BRANCH  26  27
ATOM     27  C45 O6K A 502       0.533  -6.832   5.236  0.00  0.00    +0.082 C 
ATOM     28  C47 O6K A 502       0.839  -5.983   4.021  0.00  0.00    +0.241 C 
ATOM     29  O48 O6K A 502       0.416  -6.248   2.900  0.00  0.00    -0.273 OA
ATOM     30  N49 O6K A 502       1.658  -4.978   4.375  0.00  0.00    -0.205 N 
ATOM     31  C51 O6K A 502       2.048  -5.026   5.789  0.00  0.00    +0.116 C 
ATOM     32  C54 O6K A 502       0.960  -5.911   6.385  0.00  0.00    +0.033 C 
ATOM     33  H   O6K A 502       1.965  -4.282   3.750  0.00  0.00    +0.000 HD
ENDBRANCH  26  27
ENDBRANCH  25  26
BRANCH  25  34
ATOM     34  C57 O6K A 502      -1.899  -9.810   5.610  0.00  0.00    +0.249 C 
BRANCH  34  35
ATOM     35  C35 O6K A 502      -1.320 -10.623   6.696  0.00  0.00    +0.274 C 
ATOM     36  O41 O6K A 502      -2.103 -11.151   7.463  0.00  0.00    -0.271 OA
ATOM     37  N36 O6K A 502       0.042 -10.694   6.630  0.00  0.00    -0.198 N 
ATOM     38  H   O6K A 502       0.485 -10.190   5.910  0.00  0.00    +0.000 HD
BRANCH  37  39
ATOM     39  C13 O6K A 502       0.896 -11.455   7.540  0.00  0.00    +0.142 C 
BRANCH  39  40
ATOM     40  C14 O6K A 502       2.006 -10.581   8.111  0.00  0.00    -0.001 A 
ATOM     41  C28 O6K A 502       2.841 -11.035   9.133  0.00  0.00    -0.003 A 
ATOM     42  C26 O6K A 502       3.841 -10.208   9.648  0.00  0.00    -0.000 A 
ATOM     43  C25 O6K A 502       4.018  -8.913   9.143  0.00  0.00    -0.000 A 
ATOM     44  C23 O6K A 502       3.188  -8.449   8.121  0.00  0.00    -0.000 A 
ATOM     45  C15 O6K A 502       2.189  -9.284   7.612  0.00  0.00    -0.003 A 
ENDBRANCH  39  40
ENDBRANCH  37  39
ENDBRANCH  34  35
BRANCH  34  46
ATOM     46  O40 O6K A 502      -2.425 -10.838   4.688  0.00  0.00    -0.211 OA
ATOM     47  H   O6K A 502      -1.711 -11.446   4.440  0.00  0.00    +0.000 HD
ENDBRANCH  34  46
ENDBRANCH  25  34
ENDBRANCH   3  25
TORSDOF 15
ENDMDL
MODEL 9
REMARK minimizedAffinity -5.81779194
REMARK minimizedRMSD -1
REMARK  Name = /home/tchapet/Post-Doc/ARTICLES-DOSSIERS-DES-ARTICLES-EN-REDACTION/NOUVELS-AXES-DE-RECHERCHE-A-REGARDER-URGEMMENT/ARTICLES-EN-REDACTIONS/ARTICLE_MVOTO/Paper2_JCIM/docking_rerun/calibration_outputs/6Y2F_O6K_native.pdb
REMARK  18 active torsions:
REMARK  status: ('A' for Active; 'I' for Inactive)
REMARK    1  A    between atoms: C24_2  and  O25_3
REMARK    2  A    between atoms: C24_2  and  N23_8
REMARK    3  A    between atoms: O25_3  and  C27_4
REMARK    4  A    between atoms: C27_4  and  C31_5
REMARK    5  A    between atoms: C27_4  and  C32_6
REMARK    6  A    between atoms: C27_4  and  C33_7
REMARK    7  A    between atoms: N15_15  and  C20_16
REMARK    8  A    between atoms: C20_16  and  C22_17
REMARK    9  A    between atoms: C20_16  and  C36_21
REMARK   10  A    between atoms: C22_17  and  C29_18
REMARK   11  A    between atoms: N38_23  and  C40_24
REMARK   12  A    between atoms: C40_24  and  C42_25
REMARK   13  A    between atoms: C40_24  and  C57_32
REMARK   14  A    between atoms: C42_25  and  C45_26
REMARK   15  A    between atoms: C57_32  and  O40_33
REMARK   16  A    between atoms: C57_32  and  C35_34
REMARK   17  A    between atoms: N36_36  and  C13_37
REMARK   18  A    between atoms: C13_37  and  C14_38
REMARK                            x       y       z     vdW  Elec       q    Type
REMARK                         _______ _______ _______ _____ _____    ______ ____
ROOT
ATOM      1  C36 O6K A 502       2.488  -6.106   4.187  0.00  0.00    +0.260 C 
ATOM      2  O37 O6K A 502       2.273  -5.735   3.033  0.00  0.00    -0.272 OA
ATOM      3  N38 O6K A 502       1.652  -6.909   4.866  0.00  0.00    -0.203 N 
ATOM      4  H   O6K A 502       1.909  -7.201   5.770  0.00  0.00    +0.000 HD
ENDROOT
BRANCH   1   5
ATOM      5  C20 O6K A 502       3.729  -5.648   4.908  0.00  0.00    +0.158 C 
BRANCH   5  13
ATOM      6  N23 O6K A 502       4.562  -8.468   8.749  0.00  0.00    -0.142 NA
ATOM      7  C19 O6K A 502       4.752  -8.311   7.418  0.00  0.00    +0.112 C 
ATOM      8  C21 O6K A 502       4.175  -7.087   6.836  0.00  0.00    +0.265 C 
ATOM      9  O22 O6K A 502       3.547  -6.251   7.554  0.00  0.00    -0.268 OA
ATOM     10  C18 O6K A 502       5.403  -9.225   6.567  0.00  0.00    +0.075 C 
ATOM     11  C17 O6K A 502       5.496  -8.962   5.216  0.00  0.00    -0.004 C 
ATOM     12  C16 O6K A 502       4.968  -7.787   4.691  0.00  0.00    +0.064 C 
ATOM     13  N15 O6K A 502       4.335  -6.863   5.454  0.00  0.00    -0.246 N 
BRANCH   6  15
ATOM     14  O26 O6K A 502       5.935  -9.842   9.931  0.00  0.00    -0.224 OA
ATOM     15  C24 O6K A 502       4.837  -9.549   9.485  0.00  0.00    +0.425 C 
BRANCH  15  16
ATOM     16  O25 O6K A 502       3.692 -10.399   9.755  0.00  0.00    -0.441 OA
BRANCH  16  17
ATOM     17  C27 O6K A 502       3.368 -11.617   9.060  0.00  0.00    +0.138 C 
ATOM     18  C31 O6K A 502       2.627 -12.541  10.042  0.00  0.00    +0.044 C 
ATOM     19  C32 O6K A 502       2.488 -11.277   7.848  0.00  0.00    +0.044 C 
ATOM     20  C33 O6K A 502       4.637 -12.300   8.533  0.00  0.00    +0.044 C 
ENDBRANCH  16  17
ENDBRANCH  15  16
ENDBRANCH   6  15
ENDBRANCH   5  13
BRANCH   5  21
ATOM     21  C22 O6K A 502       4.654  -4.851   3.978  0.00  0.00    +0.030 C 
BRANCH  21  22
ATOM     22  C29 O6K A 502       4.744  -3.388   4.416  0.00  0.00    +0.002 C 
ATOM     23  C34 O6K A 502       6.088  -2.670   4.339  0.00  0.00    +0.000 C 
ATOM     24  C30 O6K A 502       5.039  -2.412   3.265  0.00  0.00    +0.000 C 
ENDBRANCH  21  22
ENDBRANCH   5  21
ENDBRANCH   1   5
BRANCH   3  25
ATOM     25  C40 O6K A 502       0.404  -7.358   4.332  0.00  0.00    +0.135 C 
BRANCH  25  26
ATOM     26  C42 O6K A 502       0.489  -8.737   3.604  0.00  0.00    +0.034 C 
BRANCH  26  27
ATOM     27  C45 O6K A 502      -0.599  -8.792   2.575  0.00  0.00    +0.082 C 
ATOM     28  C47 O6K A 502      -0.288  -8.240   1.200  0.00  0.00    +0.241 C 
ATOM     29  O48 O6K A 502       0.361  -7.213   1.026  0.00  0.00    -0.273 OA
ATOM     30  N49 O6K A 502      -0.871  -9.012   0.268  0.00  0.00    -0.205 N 
ATOM     31  C51 O6K A 502      -1.661 -10.108   0.841  0.00  0.00    +0.116 C 
ATOM     32  C54 O6K A 502      -1.082 -10.210   2.247  0.00  0.00    +0.033 C 
ATOM     33  H   O6K A 502      -0.778  -8.859  -0.701  0.00  0.00    +0.000 HD
ENDBRANCH  26  27
ENDBRANCH  25  26
BRANCH  25  34
ATOM     34  C57 O6K A 502      -0.481  -7.225   5.567  0.00  0.00    +0.249 C 
BRANCH  34  35
ATOM     35  C35 O6K A 502      -0.137  -8.284   6.535  0.00  0.00    +0.274 C 
ATOM     36  O41 O6K A 502       0.919  -8.163   7.127  0.00  0.00    -0.271 OA
ATOM     37  N36 O6K A 502      -1.116  -9.228   6.648  0.00  0.00    -0.198 N 
ATOM     38  H   O6K A 502      -1.908  -9.129   6.073  0.00  0.00    +0.000 HD
BRANCH  37  39
ATOM     39  C13 O6K A 502      -1.085 -10.377   7.553  0.00  0.00    +0.142 C 
BRANCH  39  40
ATOM     40  C14 O6K A 502      -1.111 -11.688   6.778  0.00  0.00    -0.001 A 
ATOM     41  C28 O6K A 502      -1.176 -11.711   5.384  0.00  0.00    -0.003 A 
ATOM     42  C26 O6K A 502      -1.214 -12.927   4.699  0.00  0.00    -0.000 A 
ATOM     43  C25 O6K A 502      -1.184 -14.137   5.403  0.00  0.00    -0.000 A 
ATOM     44  C23 O6K A 502      -1.118 -14.125   6.798  0.00  0.00    -0.000 A 
ATOM     45  C15 O6K A 502      -1.082 -12.903   7.476  0.00  0.00    -0.003 A 
ENDBRANCH  39  40
ENDBRANCH  37  39
ENDBRANCH  34  35
BRANCH  34  46
ATOM     46  O40 O6K A 502      -1.923  -7.454   5.342  0.00  0.00    -0.211 OA
ATOM     47  H   O6K A 502      -2.064  -8.368   5.052  0.00  0.00    +0.000 HD
ENDBRANCH  34  46
ENDBRANCH  25  34
ENDBRANCH   3  25
TORSDOF 15
ENDMDL
