MODEL 1
REMARK minimizedAffinity -7.40515804
REMARK minimizedRMSD -1
REMARK  Name = /home/tchapet/Post-Doc/ARTICLES-DOSSIERS-DES-ARTICLES-EN-REDACTION/NOUVELS-AXES-DE-RECHERCHE-A-REGARDER-URGEMMENT/ARTICLES-EN-REDACTIONS/ARTICLE_MVOTO/Paper2_JCIM/docking_rerun/calibration_outputs/1DMP_DMQ_native.pdb
REMARK  12 active torsions:
REMARK  status: ('A' for Active; 'I' for Inactive)
REMARK    1  A    between atoms: N2_3  and  C2_4
REMARK    2  A    between atoms: C2_4  and  C20_13
REMARK    3  A    between atoms: C3_5  and  C31_20
REMARK    4  A    between atoms: C4_6  and  O4_7
REMARK    5  A    between atoms: C5_8  and  O5_9
REMARK    6  A    between atoms: C6_10  and  C61_27
REMARK    7  A    between atoms: C7_11  and  N7_12
REMARK    8  A    between atoms: C7_11  and  C70_34
REMARK    9  A    between atoms: C28_17  and  N29_18
REMARK   10  A    between atoms: C31_20  and  C32_21
REMARK   11  A    between atoms: C61_27  and  C62_28
REMARK   12  A    between atoms: C72_36  and  N79_37
REMARK                            x       y       z     vdW  Elec       q    Type
REMARK                         _______ _______ _______ _____ _____    ______ ____
ROOT
ATOM      1  C1  DMQ B 450     -16.073  21.197  45.246  0.00  0.00    +0.308 C 
ATOM      2  O1  DMQ B 450     -17.064  20.546  45.511  0.00  0.00    -0.252 OA
ATOM      3  N2  DMQ B 450     -15.903  22.295  45.993  0.00  0.00    -0.259 N 
ATOM      4  C3  DMQ B 450     -15.069  23.444  45.534  0.00  0.00    +0.114 C 
ATOM      5  C4  DMQ B 450     -13.594  23.233  45.380  0.00  0.00    +0.202 C 
ATOM      6  C5  DMQ B 450     -13.192  22.389  44.195  0.00  0.00    +0.202 C 
ATOM      7  C6  DMQ B 450     -13.740  20.974  44.223  0.00  0.00    +0.114 C 
ATOM      8  N7  DMQ B 450     -15.233  20.812  44.230  0.00  0.00    -0.259 N 
ENDROOT
BRANCH   5   9
ATOM      9  O4  DMQ B 450     -13.096  24.531  45.296  0.00  0.00    -0.219 OA
ATOM     10  H   DMQ B 450     -13.496  24.982  44.537  0.00  0.00    +0.000 HD
ENDBRANCH   5   9
BRANCH   6  11
ATOM     11  O5  DMQ B 450     -11.816  22.291  44.244  0.00  0.00    -0.219 OA
ATOM     12  H   DMQ B 450     -11.552  21.858  45.072  0.00  0.00    +0.000 HD
ENDBRANCH   6  11
BRANCH   3  13
ATOM     13  C2  DMQ B 450     -16.735  22.420  47.233  0.00  0.00    +0.122 C 
BRANCH  13  14
ATOM     14  C20 DMQ B 450     -17.879  23.380  47.134  0.00  0.00    -0.001 A 
ATOM     15  C21 DMQ B 450     -17.964  24.458  48.031  0.00  0.00    -0.003 A 
ATOM     16  C22 DMQ B 450     -18.996  25.409  47.964  0.00  0.00    +0.001 A 
ATOM     17  C23 DMQ B 450     -19.955  25.273  46.956  0.00  0.00    +0.018 A 
ATOM     18  C28 DMQ B 450     -19.873  24.202  46.032  0.00  0.00    +0.089 A 
ATOM     19  C29 DMQ B 450     -18.846  23.239  46.133  0.00  0.00    +0.015 A 
BRANCH  18  20
ATOM     20  N29 DMQ B 450     -20.747  24.207  44.912  0.00  0.00    -0.128 N 
ATOM     21  H   DMQ B 450     -21.462  24.882  44.848  0.00  0.00    +0.000 HD
ATOM     22  H   DMQ B 450     -20.639  23.537  44.199  0.00  0.00    +0.000 HD
ENDBRANCH  18  20
ENDBRANCH  13  14
ENDBRANCH   3  13
BRANCH   8  23
ATOM     23  C7  DMQ B 450     -15.787  19.961  43.144  0.00  0.00    +0.122 C 
BRANCH  23  24
ATOM     24  C70 DMQ B 450     -16.462  20.618  41.959  0.00  0.00    -0.001 A 
ATOM     25  C71 DMQ B 450     -17.081  21.877  42.132  0.00  0.00    +0.015 A 
ATOM     26  C72 DMQ B 450     -17.612  22.563  41.024  0.00  0.00    +0.089 A 
ATOM     27  C77 DMQ B 450     -17.541  21.978  39.743  0.00  0.00    +0.018 A 
ATOM     28  C78 DMQ B 450     -16.941  20.703  39.561  0.00  0.00    +0.001 A 
ATOM     29  C79 DMQ B 450     -16.399  20.028  40.673  0.00  0.00    -0.003 A 
BRANCH  26  30
ATOM     30  N79 DMQ B 450     -18.203  23.854  41.182  0.00  0.00    -0.128 N 
ATOM     31  H   DMQ B 450     -18.255  24.266  42.076  0.00  0.00    +0.000 HD
ATOM     32  H   DMQ B 450     -18.559  24.333  40.399  0.00  0.00    +0.000 HD
ENDBRANCH  26  30
ENDBRANCH  23  24
ENDBRANCH   8  23
BRANCH   4  33
ATOM     33  C31 DMQ B 450     -15.776  24.184  44.383  0.00  0.00    +0.049 C 
BRANCH  33  34
ATOM     34  C32 DMQ B 450     -16.251  25.535  44.900  0.00  0.00    -0.020 A 
ATOM     35  C33 DMQ B 450     -17.320  26.218  44.268  0.00  0.00    -0.004 A 
ATOM     36  C34 DMQ B 450     -17.772  27.447  44.765  0.00  0.00    -0.000 A 
ATOM     37  C35 DMQ B 450     -17.163  27.988  45.909  0.00  0.00    -0.000 A 
ATOM     38  C36 DMQ B 450     -16.101  27.324  46.565  0.00  0.00    -0.000 A 
ATOM     39  C37 DMQ B 450     -15.639  26.095  46.053  0.00  0.00    -0.004 A 
ENDBRANCH  33  34
ENDBRANCH   4  33
BRANCH   7  40
ATOM     40  C61 DMQ B 450     -13.111  19.995  45.281  0.00  0.00    +0.049 C 
BRANCH  40  41
ATOM     41  C62 DMQ B 450     -12.469  18.746  44.678  0.00  0.00    -0.020 A 
ATOM     42  C63 DMQ B 450     -12.237  17.612  45.482  0.00  0.00    -0.004 A 
ATOM     43  C64 DMQ B 450     -11.561  16.494  44.963  0.00  0.00    -0.000 A 
ATOM     44  C65 DMQ B 450     -11.120  16.509  43.624  0.00  0.00    -0.000 A 
ATOM     45  C66 DMQ B 450     -11.353  17.629  42.792  0.00  0.00    -0.000 A 
ATOM     46  C67 DMQ B 450     -12.031  18.747  43.326  0.00  0.00    -0.004 A 
ENDBRANCH  40  41
ENDBRANCH   7  40
TORSDOF 12
ENDMDL
MODEL 2
REMARK minimizedAffinity -7.35794878
REMARK minimizedRMSD -1
REMARK  Name = /home/tchapet/Post-Doc/ARTICLES-DOSSIERS-DES-ARTICLES-EN-REDACTION/NOUVELS-AXES-DE-RECHERCHE-A-REGARDER-URGEMMENT/ARTICLES-EN-REDACTIONS/ARTICLE_MVOTO/Paper2_JCIM/docking_rerun/calibration_outputs/1DMP_DMQ_native.pdb
REMARK  12 active torsions:
REMARK  status: ('A' for Active; 'I' for Inactive)
REMARK    1  A    between atoms: N2_3  and  C2_4
REMARK    2  A    between atoms: C2_4  and  C20_13
REMARK    3  A    between atoms: C3_5  and  C31_20
REMARK    4  A    between atoms: C4_6  and  O4_7
REMARK    5  A    between atoms: C5_8  and  O5_9
REMARK    6  A    between atoms: C6_10  and  C61_27
REMARK    7  A    between atoms: C7_11  and  N7_12
REMARK    8  A    between atoms: C7_11  and  C70_34
REMARK    9  A    between atoms: C28_17  and  N29_18
REMARK   10  A    between atoms: C31_20  and  C32_21
REMARK   11  A    between atoms: C61_27  and  C62_28
REMARK   12  A    between atoms: C72_36  and  N79_37
REMARK                            x       y       z     vdW  Elec       q    Type
REMARK                         _______ _______ _______ _____ _____    ______ ____
ROOT
ATOM      1  C1  DMQ B 450     -16.491  21.925  44.906  0.00  0.00    +0.308 C 
ATOM      2  O1  DMQ B 450     -17.563  21.358  44.993  0.00  0.00    -0.252 OA
ATOM      3  N2  DMQ B 450     -16.297  22.902  45.801  0.00  0.00    -0.259 N 
ATOM      4  C3  DMQ B 450     -15.315  24.001  45.572  0.00  0.00    +0.114 C 
ATOM      5  C4  DMQ B 450     -13.858  23.653  45.530  0.00  0.00    +0.202 C 
ATOM      6  C5  DMQ B 450     -13.417  22.918  44.287  0.00  0.00    +0.202 C 
ATOM      7  C6  DMQ B 450     -14.096  21.576  44.082  0.00  0.00    +0.114 C 
ATOM      8  N7  DMQ B 450     -15.591  21.576  43.930  0.00  0.00    -0.259 N 
ENDROOT
BRANCH   5   9
ATOM      9  O4  DMQ B 450     -13.233  24.891  45.660  0.00  0.00    -0.219 OA
ATOM     10  H   DMQ B 450     -13.507  25.469  44.932  0.00  0.00    +0.000 HD
ENDBRANCH   5   9
BRANCH   6  11
ATOM     11  O5  DMQ B 450     -12.068  22.667  44.451  0.00  0.00    -0.219 OA
ATOM     12  H   DMQ B 450     -11.935  22.113  45.236  0.00  0.00    +0.000 HD
ENDBRANCH   6  11
BRANCH   3  13
ATOM     13  C2  DMQ B 450     -17.239  22.967  46.965  0.00  0.00    +0.122 C 
BRANCH  13  14
ATOM     14  C20 DMQ B 450     -18.282  24.038  46.877  0.00  0.00    -0.001 A 
ATOM     15  C21 DMQ B 450     -19.171  24.057  45.789  0.00  0.00    -0.003 A 
ATOM     16  C22 DMQ B 450     -20.189  25.018  45.671  0.00  0.00    +0.001 A 
ATOM     17  C23 DMQ B 450     -20.319  25.971  46.685  0.00  0.00    +0.018 A 
ATOM     18  C28 DMQ B 450     -19.441  25.954  47.798  0.00  0.00    +0.089 A 
ATOM     19  C29 DMQ B 450     -18.406  25.000  47.885  0.00  0.00    +0.015 A 
BRANCH  18  20
ATOM     20  N29 DMQ B 450     -19.725  26.811  48.895  0.00  0.00    -0.128 N 
ATOM     21  H   DMQ B 450     -20.450  27.475  48.827  0.00  0.00    +0.000 HD
ATOM     22  H   DMQ B 450     -19.198  26.742  49.723  0.00  0.00    +0.000 HD
ENDBRANCH  18  20
ENDBRANCH  13  14
ENDBRANCH   3  13
BRANCH   8  23
ATOM     23  C7  DMQ B 450     -16.106  20.924  42.697  0.00  0.00    +0.122 C 
BRANCH  23  24
ATOM     24  C70 DMQ B 450     -15.839  19.452  42.471  0.00  0.00    -0.001 A 
ATOM     25  C71 DMQ B 450     -15.136  19.050  41.313  0.00  0.00    +0.015 A 
ATOM     26  C72 DMQ B 450     -14.772  17.702  41.137  0.00  0.00    +0.089 A 
ATOM     27  C77 DMQ B 450     -15.129  16.751  42.114  0.00  0.00    +0.018 A 
ATOM     28  C78 DMQ B 450     -15.856  17.139  43.273  0.00  0.00    +0.001 A 
ATOM     29  C79 DMQ B 450     -16.205  18.494  43.448  0.00  0.00    -0.003 A 
BRANCH  26  30
ATOM     30  N79 DMQ B 450     -14.026  17.294  39.989  0.00  0.00    -0.128 N 
ATOM     31  H   DMQ B 450     -13.775  17.956  39.304  0.00  0.00    +0.000 HD
ATOM     32  H   DMQ B 450     -13.763  16.351  39.882  0.00  0.00    +0.000 HD
ENDBRANCH  26  30
ENDBRANCH  23  24
ENDBRANCH   8  23
BRANCH   4  33
ATOM     33  C31 DMQ B 450     -15.823  24.945  44.466  0.00  0.00    +0.049 C 
BRANCH  33  34
ATOM     34  C32 DMQ B 450     -16.303  26.234  45.117  0.00  0.00    -0.020 A 
ATOM     35  C33 DMQ B 450     -17.330  27.009  44.523  0.00  0.00    -0.004 A 
ATOM     36  C34 DMQ B 450     -17.787  28.179  45.140  0.00  0.00    -0.000 A 
ATOM     37  C35 DMQ B 450     -17.227  28.569  46.367  0.00  0.00    -0.000 A 
ATOM     38  C36 DMQ B 450     -16.207  27.812  46.988  0.00  0.00    -0.000 A 
ATOM     39  C37 DMQ B 450     -15.739  26.642  46.356  0.00  0.00    -0.004 A 
ENDBRANCH  33  34
ENDBRANCH   4  33
BRANCH   7  40
ATOM     40  C61 DMQ B 450     -13.678  20.416  45.058  0.00  0.00    +0.049 C 
BRANCH  40  41
ATOM     41  C62 DMQ B 450     -12.825  19.327  44.411  0.00  0.00    -0.020 A 
ATOM     42  C63 DMQ B 450     -12.190  19.565  43.175  0.00  0.00    -0.004 A 
ATOM     43  C64 DMQ B 450     -11.482  18.539  42.526  0.00  0.00    -0.000 A 
ATOM     44  C65 DMQ B 450     -11.402  17.265  43.123  0.00  0.00    -0.000 A 
ATOM     45  C66 DMQ B 450     -12.017  17.003  44.369  0.00  0.00    -0.000 A 
ATOM     46  C67 DMQ B 450     -12.727  18.042  45.011  0.00  0.00    -0.004 A 
ENDBRANCH  40  41
ENDBRANCH   7  40
TORSDOF 12
ENDMDL
MODEL 3
REMARK minimizedAffinity -7.27718258
REMARK minimizedRMSD -1
REMARK  Name = /home/tchapet/Post-Doc/ARTICLES-DOSSIERS-DES-ARTICLES-EN-REDACTION/NOUVELS-AXES-DE-RECHERCHE-A-REGARDER-URGEMMENT/ARTICLES-EN-REDACTIONS/ARTICLE_MVOTO/Paper2_JCIM/docking_rerun/calibration_outputs/1DMP_DMQ_native.pdb
REMARK  12 active torsions:
REMARK  status: ('A' for Active; 'I' for Inactive)
REMARK    1  A    between atoms: N2_3  and  C2_4
REMARK    2  A    between atoms: C2_4  and  C20_13
REMARK    3  A    between atoms: C3_5  and  C31_20
REMARK    4  A    between atoms: C4_6  and  O4_7
REMARK    5  A    between atoms: C5_8  and  O5_9
REMARK    6  A    between atoms: C6_10  and  C61_27
REMARK    7  A    between atoms: C7_11  and  N7_12
REMARK    8  A    between atoms: C7_11  and  C70_34
REMARK    9  A    between atoms: C28_17  and  N29_18
REMARK   10  A    between atoms: C31_20  and  C32_21
REMARK   11  A    between atoms: C61_27  and  C62_28
REMARK   12  A    between atoms: C72_36  and  N79_37
REMARK                            x       y       z     vdW  Elec       q    Type
REMARK                         _______ _______ _______ _____ _____    ______ ____
ROOT
ATOM      1  C1  DMQ B 450     -10.683  25.143  10.800  0.00  0.00    +0.308 C 
ATOM      2  O1  DMQ B 450      -9.646  25.771  10.728  0.00  0.00    -0.252 OA
ATOM      3  N2  DMQ B 450     -11.613  25.484   9.898  0.00  0.00    -0.259 N 
ATOM      4  C3  DMQ B 450     -13.063  25.204  10.111  0.00  0.00    +0.114 C 
ATOM      5  C4  DMQ B 450     -13.512  23.775  10.140  0.00  0.00    +0.202 C 
ATOM      6  C5  DMQ B 450     -13.119  23.010  11.380  0.00  0.00    +0.202 C 
ATOM      7  C6  DMQ B 450     -11.622  22.902  11.599  0.00  0.00    +0.114 C 
ATOM      8  N7  DMQ B 450     -10.856  24.184  11.767  0.00  0.00    -0.259 N 
ENDROOT
BRANCH   5   9
ATOM      9  O4  DMQ B 450     -14.894  23.875   9.997  0.00  0.00    -0.219 OA
ATOM     10  H   DMQ B 450     -15.257  24.402  10.726  0.00  0.00    +0.000 HD
ENDBRANCH   5   9
BRANCH   6  11
ATOM     11  O5  DMQ B 450     -13.595  21.725  11.204  0.00  0.00    -0.219 OA
ATOM     12  H   DMQ B 450     -13.181  21.332  10.419  0.00  0.00    +0.000 HD
ENDBRANCH   6  11
BRANCH   3  13
ATOM     13  C2  DMQ B 450     -11.174  26.334   8.745  0.00  0.00    +0.122 C 
BRANCH  13  14
ATOM     14  C20 DMQ B 450     -11.541  27.782   8.849  0.00  0.00    -0.001 A 
ATOM     15  C21 DMQ B 450     -11.064  28.545   9.928  0.00  0.00    -0.003 A 
ATOM     16  C22 DMQ B 450     -11.349  29.915  10.060  0.00  0.00    +0.001 A 
ATOM     17  C23 DMQ B 450     -12.121  30.527   9.069  0.00  0.00    +0.018 A 
ATOM     18  C28 DMQ B 450     -12.594  29.775   7.965  0.00  0.00    +0.089 A 
ATOM     19  C29 DMQ B 450     -12.323  28.394   7.864  0.00  0.00    +0.015 A 
BRANCH  18  20
ATOM     20  N29 DMQ B 450     -13.205  30.470   6.886  0.00  0.00    -0.128 N 
ATOM     21  H   DMQ B 450     -13.392  31.434   6.964  0.00  0.00    +0.000 HD
ATOM     22  H   DMQ B 450     -13.443  29.988   6.062  0.00  0.00    +0.000 HD
ENDBRANCH  18  20
ENDBRANCH  13  14
ENDBRANCH   3  13
BRANCH   8  23
ATOM     23  C7  DMQ B 450     -10.044  24.283  13.009  0.00  0.00    +0.122 C 
BRANCH  23  24
ATOM     24  C70 DMQ B 450      -8.865  23.353  13.199  0.00  0.00    -0.001 A 
ATOM     25  C71 DMQ B 450      -8.776  22.588  14.384  0.00  0.00    +0.015 A 
ATOM     26  C72 DMQ B 450      -7.756  21.631  14.534  0.00  0.00    +0.089 A 
ATOM     27  C77 DMQ B 450      -6.811  21.452  13.503  0.00  0.00    +0.018 A 
ATOM     28  C78 DMQ B 450      -6.877  22.231  12.316  0.00  0.00    +0.001 A 
ATOM     29  C79 DMQ B 450      -7.910  23.178  12.167  0.00  0.00    -0.003 A 
BRANCH  26  30
ATOM     30  N79 DMQ B 450      -7.682  20.824  15.712  0.00  0.00    -0.128 N 
ATOM     31  H   DMQ B 450      -8.340  20.947  16.434  0.00  0.00    +0.000 HD
ATOM     32  H   DMQ B 450      -6.974  20.147  15.801  0.00  0.00    +0.000 HD
ENDBRANCH  26  30
ENDBRANCH  23  24
ENDBRANCH   8  23
BRANCH   4  33
ATOM     33  C31 DMQ B 450     -13.622  26.117  11.218  0.00  0.00    +0.049 C 
BRANCH  33  34
ATOM     34  C32 DMQ B 450     -14.436  27.223  10.564  0.00  0.00    -0.020 A 
ATOM     35  C33 DMQ B 450     -15.147  26.986   9.361  0.00  0.00    -0.004 A 
ATOM     36  C34 DMQ B 450     -15.918  27.999   8.778  0.00  0.00    -0.000 A 
ATOM     37  C35 DMQ B 450     -15.992  29.251   9.408  0.00  0.00    -0.000 A 
ATOM     38  C36 DMQ B 450     -15.301  29.514  10.614  0.00  0.00    -0.000 A 
ATOM     39  C37 DMQ B 450     -14.514  28.496  11.190  0.00  0.00    -0.004 A 
ENDBRANCH  33  34
ENDBRANCH   4  33
BRANCH   7  40
ATOM     40  C61 DMQ B 450     -10.832  21.955  10.624  0.00  0.00    +0.049 C 
BRANCH  40  41
ATOM     41  C62 DMQ B 450     -10.290  20.687  11.281  0.00  0.00    -0.020 A 
ATOM     42  C63 DMQ B 450     -10.759  20.291  12.550  0.00  0.00    -0.004 A 
ATOM     43  C64 DMQ B 450     -10.199  19.180  13.204  0.00  0.00    -0.000 A 
ATOM     44  C65 DMQ B 450      -9.166  18.453  12.579  0.00  0.00    -0.000 A 
ATOM     45  C66 DMQ B 450      -8.687  18.820  11.300  0.00  0.00    -0.000 A 
ATOM     46  C67 DMQ B 450      -9.256  19.939  10.653  0.00  0.00    -0.004 A 
ENDBRANCH  40  41
ENDBRANCH   7  40
TORSDOF 12
ENDMDL
MODEL 4
REMARK minimizedAffinity -7.22179413
REMARK minimizedRMSD -1
REMARK  Name = /home/tchapet/Post-Doc/ARTICLES-DOSSIERS-DES-ARTICLES-EN-REDACTION/NOUVELS-AXES-DE-RECHERCHE-A-REGARDER-URGEMMENT/ARTICLES-EN-REDACTIONS/ARTICLE_MVOTO/Paper2_JCIM/docking_rerun/calibration_outputs/1DMP_DMQ_native.pdb
REMARK  12 active torsions:
REMARK  status: ('A' for Active; 'I' for Inactive)
REMARK    1  A    between atoms: N2_3  and  C2_4
REMARK    2  A    between atoms: C2_4  and  C20_13
REMARK    3  A    between atoms: C3_5  and  C31_20
REMARK    4  A    between atoms: C4_6  and  O4_7
REMARK    5  A    between atoms: C5_8  and  O5_9
REMARK    6  A    between atoms: C6_10  and  C61_27
REMARK    7  A    between atoms: C7_11  and  N7_12
REMARK    8  A    between atoms: C7_11  and  C70_34
REMARK    9  A    between atoms: C28_17  and  N29_18
REMARK   10  A    between atoms: C31_20  and  C32_21
REMARK   11  A    between atoms: C61_27  and  C62_28
REMARK   12  A    between atoms: C72_36  and  N79_37
REMARK                            x       y       z     vdW  Elec       q    Type
REMARK                         _______ _______ _______ _____ _____    ______ ____
ROOT
ATOM      1  C1  DMQ B 450     -16.125  21.400  45.129  0.00  0.00    +0.308 C 
ATOM      2  O1  DMQ B 450     -17.205  20.844  45.142  0.00  0.00    -0.252 OA
ATOM      3  N2  DMQ B 450     -15.254  20.919  44.233  0.00  0.00    -0.259 N 
ATOM      4  C3  DMQ B 450     -13.782  21.112  44.377  0.00  0.00    +0.114 C 
ATOM      5  C4  DMQ B 450     -13.235  22.503  44.269  0.00  0.00    +0.202 C 
ATOM      6  C5  DMQ B 450     -13.529  23.395  45.451  0.00  0.00    +0.202 C 
ATOM      7  C6  DMQ B 450     -15.007  23.627  45.704  0.00  0.00    +0.114 C 
ATOM      8  N7  DMQ B 450     -15.853  22.422  46.005  0.00  0.00    -0.259 N 
ENDROOT
BRANCH   5   9
ATOM      9  O4  DMQ B 450     -11.869  22.293  44.094  0.00  0.00    -0.219 OA
ATOM     10  H   DMQ B 450     -11.517  21.804  44.854  0.00  0.00    +0.000 HD
ENDBRANCH   5   9
BRANCH   6  11
ATOM     11  O5  DMQ B 450     -12.973  24.623  45.150  0.00  0.00    -0.219 OA
ATOM     12  H   DMQ B 450     -13.387  24.978  44.347  0.00  0.00    +0.000 HD
ENDBRANCH   6  11
BRANCH   3  13
ATOM     13  C2  DMQ B 450     -15.792  20.009  43.170  0.00  0.00    +0.122 C 
BRANCH  13  14
ATOM     14  C20 DMQ B 450     -16.366  20.702  41.974  0.00  0.00    -0.001 A 
ATOM     15  C21 DMQ B 450     -16.401  20.040  40.735  0.00  0.00    -0.003 A 
ATOM     16  C22 DMQ B 450     -16.958  20.629  39.587  0.00  0.00    +0.001 A 
ATOM     17  C23 DMQ B 450     -17.504  21.910  39.701  0.00  0.00    +0.018 A 
ATOM     18  C28 DMQ B 450     -17.492  22.584  40.947  0.00  0.00    +0.089 A 
ATOM     19  C29 DMQ B 450     -16.902  21.990  42.083  0.00  0.00    +0.015 A 
BRANCH  18  20
ATOM     20  N29 DMQ B 450     -18.225  23.796  41.067  0.00  0.00    -0.128 N 
ATOM     21  H   DMQ B 450     -18.633  24.205  40.270  0.00  0.00    +0.000 HD
ATOM     22  H   DMQ B 450     -18.324  24.227  41.947  0.00  0.00    +0.000 HD
ENDBRANCH  18  20
ENDBRANCH  13  14
ENDBRANCH   3  13
BRANCH   8  23
ATOM     23  C7  DMQ B 450     -16.624  22.486  47.274  0.00  0.00    +0.122 C 
BRANCH  23  24
ATOM     24  C70 DMQ B 450     -17.711  23.528  47.428  0.00  0.00    -0.001 A 
ATOM     25  C71 DMQ B 450     -17.602  24.489  48.458  0.00  0.00    +0.015 A 
ATOM     26  C72 DMQ B 450     -18.535  25.538  48.550  0.00  0.00    +0.089 A 
ATOM     27  C77 DMQ B 450     -19.592  25.614  47.621  0.00  0.00    +0.018 A 
ATOM     28  C78 DMQ B 450     -19.726  24.639  46.594  0.00  0.00    +0.001 A 
ATOM     29  C79 DMQ B 450     -18.779  23.600  46.500  0.00  0.00    -0.003 A 
BRANCH  26  30
ATOM     30  N79 DMQ B 450     -18.408  26.538  49.563  0.00  0.00    -0.128 N 
ATOM     31  H   DMQ B 450     -17.671  26.488  50.215  0.00  0.00    +0.000 HD
ATOM     32  H   DMQ B 450     -19.058  27.276  49.611  0.00  0.00    +0.000 HD
ENDBRANCH  26  30
ENDBRANCH  23  24
ENDBRANCH   8  23
BRANCH   4  33
ATOM     33  C31 DMQ B 450     -13.247  20.257  45.542  0.00  0.00    +0.049 C 
BRANCH  33  34
ATOM     34  C32 DMQ B 450     -12.633  18.990  44.965  0.00  0.00    -0.020 A 
ATOM     35  C33 DMQ B 450     -12.233  18.931  43.607  0.00  0.00    -0.004 A 
ATOM     36  C34 DMQ B 450     -11.642  17.772  43.089  0.00  0.00    -0.000 A 
ATOM     37  C35 DMQ B 450     -11.435  16.671  43.936  0.00  0.00    -0.000 A 
ATOM     38  C36 DMQ B 450     -11.816  16.705  45.298  0.00  0.00    -0.000 A 
ATOM     39  C37 DMQ B 450     -12.424  17.869  45.812  0.00  0.00    -0.004 A 
ENDBRANCH  33  34
ENDBRANCH   4  33
BRANCH   7  40
ATOM     40  C61 DMQ B 450     -15.765  24.544  44.675  0.00  0.00    +0.049 C 
BRANCH  40  41
ATOM     41  C62 DMQ B 450     -16.185  25.902  45.233  0.00  0.00    -0.020 A 
ATOM     42  C63 DMQ B 450     -15.551  26.423  46.380  0.00  0.00    -0.004 A 
ATOM     43  C64 DMQ B 450     -15.994  27.626  46.956  0.00  0.00    -0.000 A 
ATOM     44  C65 DMQ B 450     -17.076  28.318  46.376  0.00  0.00    -0.000 A 
ATOM     45  C66 DMQ B 450     -17.721  27.824  45.218  0.00  0.00    -0.000 A 
ATOM     46  C67 DMQ B 450     -17.268  26.613  44.649  0.00  0.00    -0.004 A 
ENDBRANCH  40  41
ENDBRANCH   7  40
TORSDOF 12
ENDMDL
MODEL 5
REMARK minimizedAffinity -7.19372034
REMARK minimizedRMSD -1
REMARK  Name = /home/tchapet/Post-Doc/ARTICLES-DOSSIERS-DES-ARTICLES-EN-REDACTION/NOUVELS-AXES-DE-RECHERCHE-A-REGARDER-URGEMMENT/ARTICLES-EN-REDACTIONS/ARTICLE_MVOTO/Paper2_JCIM/docking_rerun/calibration_outputs/1DMP_DMQ_native.pdb
REMARK  12 active torsions:
REMARK  status: ('A' for Active; 'I' for Inactive)
REMARK    1  A    between atoms: N2_3  and  C2_4
REMARK    2  A    between atoms: C2_4  and  C20_13
REMARK    3  A    between atoms: C3_5  and  C31_20
REMARK    4  A    between atoms: C4_6  and  O4_7
REMARK    5  A    between atoms: C5_8  and  O5_9
REMARK    6  A    between atoms: C6_10  and  C61_27
REMARK    7  A    between atoms: C7_11  and  N7_12
REMARK    8  A    between atoms: C7_11  and  C70_34
REMARK    9  A    between atoms: C28_17  and  N29_18
REMARK   10  A    between atoms: C31_20  and  C32_21
REMARK   11  A    between atoms: C61_27  and  C62_28
REMARK   12  A    between atoms: C72_36  and  N79_37
REMARK                            x       y       z     vdW  Elec       q    Type
REMARK                         _______ _______ _______ _____ _____    ______ ____
ROOT
ATOM      1  C1  DMQ B 450     -11.197  24.880   9.891  0.00  0.00    +0.308 C 
ATOM      2  O1  DMQ B 450     -11.374  26.017   9.501  0.00  0.00    -0.252 OA
ATOM      3  N2  DMQ B 450     -10.939  23.987   8.927  0.00  0.00    -0.259 N 
ATOM      4  C3  DMQ B 450     -11.171  22.525   9.119  0.00  0.00    +0.114 C 
ATOM      5  C4  DMQ B 450     -10.324  21.799  10.118  0.00  0.00    +0.202 C 
ATOM      6  C5  DMQ B 450     -10.645  22.101  11.562  0.00  0.00    +0.202 C 
ATOM      7  C6  DMQ B 450     -10.459  23.556  11.951  0.00  0.00    +0.114 C 
ATOM      8  N7  DMQ B 450     -11.293  24.574  11.226  0.00  0.00    -0.259 N 
ENDROOT
BRANCH   5   9
ATOM      9  O4  DMQ B 450     -10.539  20.459   9.800  0.00  0.00    -0.219 OA
ATOM     10  H   DMQ B 450     -11.483  20.255   9.881  0.00  0.00    +0.000 HD
ENDBRANCH   5   9
BRANCH   6  11
ATOM     11  O5  DMQ B 450      -9.750  21.365  12.314  0.00  0.00    -0.219 OA
ATOM     12  H   DMQ B 450      -8.845  21.643  12.104  0.00  0.00    +0.000 HD
ENDBRANCH   6  11
BRANCH   3  13
ATOM     13  C2  DMQ B 450     -10.587  24.520   7.571  0.00  0.00    +0.122 C 
BRANCH  13  14
ATOM     14  C20 DMQ B 450     -11.687  24.449   6.558  0.00  0.00    -0.001 A 
ATOM     15  C21 DMQ B 450     -11.484  23.750   5.356  0.00  0.00    -0.003 A 
ATOM     16  C22 DMQ B 450     -12.491  23.622   4.385  0.00  0.00    +0.001 A 
ATOM     17  C23 DMQ B 450     -13.736  24.202   4.644  0.00  0.00    +0.018 A 
ATOM     18  C28 DMQ B 450     -13.962  24.895   5.859  0.00  0.00    +0.089 A 
ATOM     19  C29 DMQ B 450     -12.931  25.039   6.810  0.00  0.00    +0.015 A 
BRANCH  18  20
ATOM     20  N29 DMQ B 450     -15.289  25.300   6.168  0.00  0.00    -0.128 N 
ATOM     21  H   DMQ B 450     -16.004  25.197   5.499  0.00  0.00    +0.000 HD
ATOM     22  H   DMQ B 450     -15.494  25.684   7.051  0.00  0.00    +0.000 HD
ENDBRANCH  18  20
ENDBRANCH  13  14
ENDBRANCH   3  13
BRANCH   8  23
ATOM     23  C7  DMQ B 450     -12.112  25.462  12.094  0.00  0.00    +0.122 C 
BRANCH  23  24
ATOM     24  C70 DMQ B 450     -11.420  26.489  12.964  0.00  0.00    -0.001 A 
ATOM     25  C71 DMQ B 450     -11.643  26.471  14.360  0.00  0.00    +0.015 A 
ATOM     26  C72 DMQ B 450     -10.924  27.337  15.203  0.00  0.00    +0.089 A 
ATOM     27  C77 DMQ B 450      -9.992  28.237  14.647  0.00  0.00    +0.018 A 
ATOM     28  C78 DMQ B 450      -9.775  28.280  13.243  0.00  0.00    +0.001 A 
ATOM     29  C79 DMQ B 450     -10.490  27.399  12.406  0.00  0.00    -0.003 A 
BRANCH  26  30
ATOM     30  N79 DMQ B 450     -11.113  27.298  16.619  0.00  0.00    -0.128 N 
ATOM     31  H   DMQ B 450     -11.764  26.671  17.012  0.00  0.00    +0.000 HD
ATOM     32  H   DMQ B 450     -10.594  27.897  17.203  0.00  0.00    +0.000 HD
ENDBRANCH  26  30
ENDBRANCH  23  24
ENDBRANCH   8  23
BRANCH   4  33
ATOM     33  C31 DMQ B 450     -12.682  22.230   9.161  0.00  0.00    +0.049 C 
BRANCH  33  34
ATOM     34  C32 DMQ B 450     -13.078  21.562   7.852  0.00  0.00    -0.020 A 
ATOM     35  C33 DMQ B 450     -12.132  20.822   7.101  0.00  0.00    -0.004 A 
ATOM     36  C34 DMQ B 450     -12.509  20.185   5.912  0.00  0.00    -0.000 A 
ATOM     37  C35 DMQ B 450     -13.842  20.276   5.480  0.00  0.00    -0.000 A 
ATOM     38  C36 DMQ B 450     -14.810  21.000   6.214  0.00  0.00    -0.000 A 
ATOM     39  C37 DMQ B 450     -14.423  21.651   7.403  0.00  0.00    -0.004 A 
ENDBRANCH  33  34
ENDBRANCH   4  33
BRANCH   7  40
ATOM     40  C61 DMQ B 450      -8.979  24.078  12.048  0.00  0.00    +0.049 C 
BRANCH  40  41
ATOM     41  C62 DMQ B 450      -8.541  24.467  13.459  0.00  0.00    -0.020 A 
ATOM     42  C63 DMQ B 450      -9.196  23.917  14.580  0.00  0.00    -0.004 A 
ATOM     43  C64 DMQ B 450      -8.865  24.340  15.879  0.00  0.00    -0.000 A 
ATOM     44  C65 DMQ B 450      -7.864  25.316  16.059  0.00  0.00    -0.000 A 
ATOM     45  C66 DMQ B 450      -7.182  25.874  14.952  0.00  0.00    -0.000 A 
ATOM     46  C67 DMQ B 450      -7.525  25.442  13.651  0.00  0.00    -0.004 A 
ENDBRANCH  40  41
ENDBRANCH   7  40
TORSDOF 12
ENDMDL
MODEL 6
REMARK minimizedAffinity -7.15341854
REMARK minimizedRMSD -1
REMARK  Name = /home/tchapet/Post-Doc/ARTICLES-DOSSIERS-DES-ARTICLES-EN-REDACTION/NOUVELS-AXES-DE-RECHERCHE-A-REGARDER-URGEMMENT/ARTICLES-EN-REDACTIONS/ARTICLE_MVOTO/Paper2_JCIM/docking_rerun/calibration_outputs/1DMP_DMQ_native.pdb
REMARK  12 active torsions:
REMARK  status: ('A' for Active; 'I' for Inactive)
REMARK    1  A    between atoms: N2_3  and  C2_4
REMARK    2  A    between atoms: C2_4  and  C20_13
REMARK    3  A    between atoms: C3_5  and  C31_20
REMARK    4  A    between atoms: C4_6  and  O4_7
REMARK    5  A    between atoms: C5_8  and  O5_9
REMARK    6  A    between atoms: C6_10  and  C61_27
REMARK    7  A    between atoms: C7_11  and  N7_12
REMARK    8  A    between atoms: C7_11  and  C70_34
REMARK    9  A    between atoms: C28_17  and  N29_18
REMARK   10  A    between atoms: C31_20  and  C32_21
REMARK   11  A    between atoms: C61_27  and  C62_28
REMARK   12  A    between atoms: C72_36  and  N79_37
REMARK                            x       y       z     vdW  Elec       q    Type
REMARK                         _______ _______ _______ _____ _____    ______ ____
ROOT
ATOM      1  C1  DMQ B 450     -11.476  24.868  10.114  0.00  0.00    +0.308 C 
ATOM      2  O1  DMQ B 450     -11.943  25.947   9.808  0.00  0.00    -0.252 OA
ATOM      3  N2  DMQ B 450     -11.450  24.617  11.429  0.00  0.00    -0.259 N 
ATOM      4  C3  DMQ B 450     -10.515  23.620  12.027  0.00  0.00    +0.114 C 
ATOM      5  C4  DMQ B 450     -10.705  22.174  11.682  0.00  0.00    +0.202 C 
ATOM      6  C5  DMQ B 450     -10.304  21.798  10.277  0.00  0.00    +0.202 C 
ATOM      7  C6  DMQ B 450     -11.087  22.515   9.192  0.00  0.00    +0.114 C 
ATOM      8  N7  DMQ B 450     -10.996  24.014   9.152  0.00  0.00    -0.259 N 
ENDROOT
BRANCH   5   9
ATOM      9  O4  DMQ B 450      -9.940  21.517  12.643  0.00  0.00    -0.219 OA
ATOM     10  H   DMQ B 450      -9.017  21.806  12.574  0.00  0.00    +0.000 HD
ENDBRANCH   5   9
BRANCH   6  11
ATOM     11  O5  DMQ B 450     -10.577  20.450  10.149  0.00  0.00    -0.219 OA
ATOM     12  H   DMQ B 450     -11.526  20.299  10.281  0.00  0.00    +0.000 HD
ENDBRANCH   6  11
BRANCH   3  13
ATOM     13  C2  DMQ B 450     -12.262  25.511  12.316  0.00  0.00    +0.122 C 
BRANCH  13  14
ATOM     14  C20 DMQ B 450     -11.466  26.440  13.178  0.00  0.00    -0.001 A 
ATOM     15  C21 DMQ B 450     -10.632  27.402  12.583  0.00  0.00    -0.003 A 
ATOM     16  C22 DMQ B 450      -9.887  28.321  13.341  0.00  0.00    +0.001 A 
ATOM     17  C23 DMQ B 450     -10.002  28.274  14.733  0.00  0.00    +0.018 A 
ATOM     18  C28 DMQ B 450     -10.852  27.322  15.349  0.00  0.00    +0.089 A 
ATOM     19  C29 DMQ B 450     -11.569  26.387  14.573  0.00  0.00    +0.015 A 
BRANCH  18  20
ATOM     20  N29 DMQ B 450     -11.089  27.431  16.746  0.00  0.00    -0.128 N 
ATOM     21  H   DMQ B 450     -10.584  28.086  17.281  0.00  0.00    +0.000 HD
ATOM     22  H   DMQ B 450     -11.758  26.854  17.179  0.00  0.00    +0.000 HD
ENDBRANCH  18  20
ENDBRANCH  13  14
ENDBRANCH   3  13
BRANCH   8  23
ATOM     23  C7  DMQ B 450     -10.556  24.591   7.854  0.00  0.00    +0.122 C 
BRANCH  23  24
ATOM     24  C70 DMQ B 450     -11.452  24.454   6.642  0.00  0.00    -0.001 A 
ATOM     25  C71 DMQ B 450     -10.955  23.806   5.489  0.00  0.00    +0.015 A 
ATOM     26  C72 DMQ B 450     -11.802  23.561   4.393  0.00  0.00    +0.089 A 
ATOM     27  C77 DMQ B 450     -13.145  23.984   4.443  0.00  0.00    +0.018 A 
ATOM     28  C78 DMQ B 450     -13.651  24.658   5.588  0.00  0.00    +0.001 A 
ATOM     29  C79 DMQ B 450     -12.800  24.887   6.687  0.00  0.00    -0.003 A 
BRANCH  26  30
ATOM     30  N79 DMQ B 450     -11.318  22.869   3.239  0.00  0.00    -0.128 N 
ATOM     31  H   DMQ B 450     -10.380  22.573   3.200  0.00  0.00    +0.000 HD
ATOM     32  H   DMQ B 450     -11.923  22.690   2.483  0.00  0.00    +0.000 HD
ENDBRANCH  26  30
ENDBRANCH  23  24
ENDBRANCH   8  23
BRANCH   4  33
ATOM     33  C31 DMQ B 450      -9.070  24.150  11.974  0.00  0.00    +0.049 C 
BRANCH  33  34
ATOM     34  C32 DMQ B 450      -8.644  24.526  13.385  0.00  0.00    -0.020 A 
ATOM     35  C33 DMQ B 450      -9.223  23.891  14.512  0.00  0.00    -0.004 A 
ATOM     36  C34 DMQ B 450      -8.807  24.221  15.807  0.00  0.00    -0.000 A 
ATOM     37  C35 DMQ B 450      -7.794  25.179  15.978  0.00  0.00    -0.000 A 
ATOM     38  C36 DMQ B 450      -7.192  25.823  14.872  0.00  0.00    -0.000 A 
ATOM     39  C37 DMQ B 450      -7.624  25.498  13.570  0.00  0.00    -0.004 A 
ENDBRANCH  33  34
ENDBRANCH   4  33
BRANCH   7  40
ATOM     40  C61 DMQ B 450     -12.587  22.085   9.003  0.00  0.00    +0.049 C 
BRANCH  40  41
ATOM     41  C62 DMQ B 450     -12.874  21.360   7.689  0.00  0.00    -0.020 A 
ATOM     42  C63 DMQ B 450     -11.822  20.755   6.971  0.00  0.00    -0.004 A 
ATOM     43  C64 DMQ B 450     -12.059  20.168   5.716  0.00  0.00    -0.000 A 
ATOM     44  C65 DMQ B 450     -13.362  20.180   5.178  0.00  0.00    -0.000 A 
ATOM     45  C66 DMQ B 450     -14.437  20.767   5.884  0.00  0.00    -0.000 A 
ATOM     46  C67 DMQ B 450     -14.186  21.355   7.144  0.00  0.00    -0.004 A 
ENDBRANCH  40  41
ENDBRANCH   7  40
TORSDOF 12
ENDMDL
MODEL 7
REMARK minimizedAffinity -7.09975195
REMARK minimizedRMSD -1
REMARK  Name = /home/tchapet/Post-Doc/ARTICLES-DOSSIERS-DES-ARTICLES-EN-REDACTION/NOUVELS-AXES-DE-RECHERCHE-A-REGARDER-URGEMMENT/ARTICLES-EN-REDACTIONS/ARTICLE_MVOTO/Paper2_JCIM/docking_rerun/calibration_outputs/1DMP_DMQ_native.pdb
REMARK  12 active torsions:
REMARK  status: ('A' for Active; 'I' for Inactive)
REMARK    1  A    between atoms: N2_3  and  C2_4
REMARK    2  A    between atoms: C2_4  and  C20_13
REMARK    3  A    between atoms: C3_5  and  C31_20
REMARK    4  A    between atoms: C4_6  and  O4_7
REMARK    5  A    between atoms: C5_8  and  O5_9
REMARK    6  A    between atoms: C6_10  and  C61_27
REMARK    7  A    between atoms: C7_11  and  N7_12
REMARK    8  A    between atoms: C7_11  and  C70_34
REMARK    9  A    between atoms: C28_17  and  N29_18
REMARK   10  A    between atoms: C31_20  and  C32_21
REMARK   11  A    between atoms: C61_27  and  C62_28
REMARK   12  A    between atoms: C72_36  and  N79_37
REMARK                            x       y       z     vdW  Elec       q    Type
REMARK                         _______ _______ _______ _____ _____    ______ ____
ROOT
ATOM      1  C1  DMQ B 450     -16.448  21.913  44.425  0.00  0.00    +0.308 C 
ATOM      2  O1  DMQ B 450     -17.554  21.475  44.178  0.00  0.00    -0.252 OA
ATOM      3  N2  DMQ B 450     -15.475  21.474  43.617  0.00  0.00    -0.259 N 
ATOM      4  C3  DMQ B 450     -14.040  21.491  44.024  0.00  0.00    +0.114 C 
ATOM      5  C4  DMQ B 450     -13.375  22.819  44.222  0.00  0.00    +0.202 C 
ATOM      6  C5  DMQ B 450     -13.799  23.563  45.465  0.00  0.00    +0.202 C 
ATOM      7  C6  DMQ B 450     -15.276  23.910  45.510  0.00  0.00    +0.114 C 
ATOM      8  N7  DMQ B 450     -16.253  22.769  45.481  0.00  0.00    -0.259 N 
ENDROOT
BRANCH   5   9
ATOM      9  O4  DMQ B 450     -12.020  22.494  44.239  0.00  0.00    -0.219 OA
ATOM     10  H   DMQ B 450     -11.846  21.871  44.961  0.00  0.00    +0.000 HD
ENDBRANCH   5   9
BRANCH   6  11
ATOM     11  O5  DMQ B 450     -13.104  24.757  45.451  0.00  0.00    -0.219 OA
ATOM     12  H   DMQ B 450     -13.343  25.261  44.657  0.00  0.00    +0.000 HD
ENDBRANCH   6  11
BRANCH   3  13
ATOM     13  C2  DMQ B 450     -15.889  20.781  42.353  0.00  0.00    +0.122 C 
BRANCH  13  14
ATOM     14  C20 DMQ B 450     -15.640  19.306  42.330  0.00  0.00    -0.001 A 
ATOM     15  C21 DMQ B 450     -16.207  18.487  43.322  0.00  0.00    -0.003 A 
ATOM     16  C22 DMQ B 450     -16.035  17.093  43.331  0.00  0.00    +0.001 A 
ATOM     17  C23 DMQ B 450     -15.285  16.513  42.304  0.00  0.00    +0.018 A 
ATOM     18  C28 DMQ B 450     -14.722  17.323  41.286  0.00  0.00    +0.089 A 
ATOM     19  C29 DMQ B 450     -14.880  18.724  41.309  0.00  0.00    +0.015 A 
BRANCH  18  20
ATOM     20  N29 DMQ B 450     -14.136  16.682  40.161  0.00  0.00    -0.128 N 
ATOM     21  H   DMQ B 450     -14.028  15.704  40.152  0.00  0.00    +0.000 HD
ATOM     22  H   DMQ B 450     -13.836  17.217  39.391  0.00  0.00    +0.000 HD
ENDBRANCH  18  20
ENDBRANCH  13  14
ENDBRANCH   3  13
BRANCH   8  23
ATOM     23  C7  DMQ B 450     -17.227  22.735  46.604  0.00  0.00    +0.122 C 
BRANCH  23  24
ATOM     24  C70 DMQ B 450     -18.275  23.822  46.708  0.00  0.00    -0.001 A 
ATOM     25  C71 DMQ B 450     -18.263  24.683  47.828  0.00  0.00    +0.015 A 
ATOM     26  C72 DMQ B 450     -19.150  25.773  47.893  0.00  0.00    +0.089 A 
ATOM     27  C77 DMQ B 450     -20.064  25.991  46.842  0.00  0.00    +0.018 A 
ATOM     28  C78 DMQ B 450     -20.101  25.118  45.721  0.00  0.00    +0.001 A 
ATOM     29  C79 DMQ B 450     -19.200  24.036  45.657  0.00  0.00    -0.003 A 
BRANCH  26  30
ATOM     30  N79 DMQ B 450     -19.118  26.673  49.003  0.00  0.00    -0.128 N 
ATOM     31  H   DMQ B 450     -18.481  26.525  49.739  0.00  0.00    +0.000 HD
ATOM     32  H   DMQ B 450     -19.732  27.442  49.032  0.00  0.00    +0.000 HD
ENDBRANCH  26  30
ENDBRANCH  23  24
ENDBRANCH   8  23
BRANCH   4  33
ATOM     33  C31 DMQ B 450     -13.786  20.431  45.113  0.00  0.00    +0.049 C 
BRANCH  33  34
ATOM     34  C32 DMQ B 450     -12.961  19.305  44.505  0.00  0.00    -0.020 A 
ATOM     35  C33 DMQ B 450     -12.949  18.016  45.093  0.00  0.00    -0.004 A 
ATOM     36  C34 DMQ B 450     -12.212  16.977  44.514  0.00  0.00    -0.000 A 
ATOM     37  C35 DMQ B 450     -11.495  17.222  43.331  0.00  0.00    -0.000 A 
ATOM     38  C36 DMQ B 450     -11.496  18.496  42.717  0.00  0.00    -0.000 A 
ATOM     39  C37 DMQ B 450     -12.228  19.544  43.312  0.00  0.00    -0.004 A 
ENDBRANCH  33  34
ENDBRANCH   4  33
BRANCH   7  40
ATOM     40  C61 DMQ B 450     -15.768  25.034  44.527  0.00  0.00    +0.049 C 
BRANCH  40  41
ATOM     41  C62 DMQ B 450     -16.295  26.289  45.221  0.00  0.00    -0.020 A 
ATOM     42  C63 DMQ B 450     -17.280  27.082  44.597  0.00  0.00    -0.004 A 
ATOM     43  C64 DMQ B 450     -17.703  28.288  45.182  0.00  0.00    -0.000 A 
ATOM     44  C65 DMQ B 450     -17.140  28.701  46.407  0.00  0.00    -0.000 A 
ATOM     45  C66 DMQ B 450     -16.160  27.918  47.060  0.00  0.00    -0.000 A 
ATOM     46  C67 DMQ B 450     -15.742  26.709  46.461  0.00  0.00    -0.004 A 
ENDBRANCH  40  41
ENDBRANCH   7  40
TORSDOF 12
ENDMDL
MODEL 8
REMARK minimizedAffinity -7.09944105
REMARK minimizedRMSD -1
REMARK  Name = /home/tchapet/Post-Doc/ARTICLES-DOSSIERS-DES-ARTICLES-EN-REDACTION/NOUVELS-AXES-DE-RECHERCHE-A-REGARDER-URGEMMENT/ARTICLES-EN-REDACTIONS/ARTICLE_MVOTO/Paper2_JCIM/docking_rerun/calibration_outputs/1DMP_DMQ_native.pdb
REMARK  12 active torsions:
REMARK  status: ('A' for Active; 'I' for Inactive)
REMARK    1  A    between atoms: N2_3  and  C2_4
REMARK    2  A    between atoms: C2_4  and  C20_13
REMARK    3  A    between atoms: C3_5  and  C31_20
REMARK    4  A    between atoms: C4_6  and  O4_7
REMARK    5  A    between atoms: C5_8  and  O5_9
REMARK    6  A    between atoms: C6_10  and  C61_27
REMARK    7  A    between atoms: C7_11  and  N7_12
REMARK    8  A    between atoms: C7_11  and  C70_34
REMARK    9  A    between atoms: C28_17  and  N29_18
REMARK   10  A    between atoms: C31_20  and  C32_21
REMARK   11  A    between atoms: C61_27  and  C62_28
REMARK   12  A    between atoms: C72_36  and  N79_37
REMARK                            x       y       z     vdW  Elec       q    Type
REMARK                         _______ _______ _______ _____ _____    ______ ____
ROOT
ATOM      1  C1  DMQ B 450     -16.041  21.429  45.369  0.00  0.00    +0.308 C 
ATOM      2  O1  DMQ B 450     -17.051  20.837  45.694  0.00  0.00    -0.252 OA
ATOM      3  N2  DMQ B 450     -15.798  22.551  46.059  0.00  0.00    -0.259 N 
ATOM      4  C3  DMQ B 450     -14.929  23.638  45.521  0.00  0.00    +0.114 C 
ATOM      5  C4  DMQ B 450     -13.471  23.353  45.333  0.00  0.00    +0.202 C 
ATOM      6  C5  DMQ B 450     -13.146  22.439  44.176  0.00  0.00    +0.202 C 
ATOM      7  C6  DMQ B 450     -13.755  21.053  44.287  0.00  0.00    +0.114 C 
ATOM      8  N7  DMQ B 450     -15.253  20.961  44.346  0.00  0.00    -0.259 N 
ENDROOT
BRANCH   5   9
ATOM      9  O4  DMQ B 450     -12.918  24.622  45.173  0.00  0.00    -0.219 OA
ATOM     10  H   DMQ B 450     -13.323  25.056  44.407  0.00  0.00    +0.000 HD
ENDBRANCH   5   9
BRANCH   6  11
ATOM     11  O5  DMQ B 450     -11.774  22.280  44.188  0.00  0.00    -0.219 OA
ATOM     12  H   DMQ B 450     -11.503  21.873  45.026  0.00  0.00    +0.000 HD
ENDBRANCH   6  11
BRANCH   3  13
ATOM     13  C2  DMQ B 450     -16.583  22.769  47.317  0.00  0.00    +0.122 C 
BRANCH  13  14
ATOM     14  C20 DMQ B 450     -15.763  23.082  48.529  0.00  0.00    -0.001 A 
ATOM     15  C21 DMQ B 450     -15.982  24.280  49.229  0.00  0.00    -0.003 A 
ATOM     16  C22 DMQ B 450     -15.266  24.611  50.392  0.00  0.00    +0.001 A 
ATOM     17  C23 DMQ B 450     -14.317  23.699  50.864  0.00  0.00    +0.018 A 
ATOM     18  C28 DMQ B 450     -14.096  22.479  50.179  0.00  0.00    +0.089 A 
ATOM     19  C29 DMQ B 450     -14.804  22.177  48.996  0.00  0.00    +0.015 A 
BRANCH  18  20
ATOM     20  N29 DMQ B 450     -13.269  21.500  50.793  0.00  0.00    -0.128 N 
ATOM     21  H   DMQ B 450     -12.777  21.717  51.618  0.00  0.00    +0.000 HD
ATOM     22  H   DMQ B 450     -13.187  20.604  50.394  0.00  0.00    +0.000 HD
ENDBRANCH  18  20
ENDBRANCH  13  14
ENDBRANCH   3  13
BRANCH   8  23
ATOM     23  C7  DMQ B 450     -15.879  20.088  43.319  0.00  0.00    +0.122 C 
BRANCH  23  24
ATOM     24  C70 DMQ B 450     -16.522  20.720  42.103  0.00  0.00    -0.001 A 
ATOM     25  C71 DMQ B 450     -17.114  21.997  42.223  0.00  0.00    +0.015 A 
ATOM     26  C72 DMQ B 450     -17.614  22.657  41.085  0.00  0.00    +0.089 A 
ATOM     27  C77 DMQ B 450     -17.537  22.028  39.826  0.00  0.00    +0.018 A 
ATOM     28  C78 DMQ B 450     -16.964  20.734  39.695  0.00  0.00    +0.001 A 
ATOM     29  C79 DMQ B 450     -16.453  20.085  40.838  0.00  0.00    -0.003 A 
BRANCH  26  30
ATOM     30  N79 DMQ B 450     -18.177  23.966  41.192  0.00  0.00    -0.128 N 
ATOM     31  H   DMQ B 450     -18.233  24.408  42.070  0.00  0.00    +0.000 HD
ATOM     32  H   DMQ B 450     -18.510  24.425  40.387  0.00  0.00    +0.000 HD
ENDBRANCH  26  30
ENDBRANCH  23  24
ENDBRANCH   8  23
BRANCH   4  33
ATOM     33  C31 DMQ B 450     -15.639  24.358  44.359  0.00  0.00    +0.049 C 
BRANCH  33  34
ATOM     34  C32 DMQ B 450     -16.200  25.673  44.880  0.00  0.00    -0.020 A 
ATOM     35  C33 DMQ B 450     -15.751  26.219  46.108  0.00  0.00    -0.004 A 
ATOM     36  C34 DMQ B 450     -16.249  27.443  46.568  0.00  0.00    -0.000 A 
ATOM     37  C35 DMQ B 450     -17.190  28.135  45.789  0.00  0.00    -0.000 A 
ATOM     38  C36 DMQ B 450     -17.651  27.620  44.555  0.00  0.00    -0.000 A 
ATOM     39  C37 DMQ B 450     -17.157  26.380  44.103  0.00  0.00    -0.004 A 
ENDBRANCH  33  34
ENDBRANCH   4  33
BRANCH   7  40
ATOM     40  C61 DMQ B 450     -13.136  20.094  45.369  0.00  0.00    +0.049 C 
BRANCH  40  41
ATOM     41  C62 DMQ B 450     -12.460  18.851  44.795  0.00  0.00    -0.020 A 
ATOM     42  C63 DMQ B 450     -12.121  18.797  43.428  0.00  0.00    -0.004 A 
ATOM     43  C64 DMQ B 450     -11.585  17.623  42.870  0.00  0.00    -0.000 A 
ATOM     44  C65 DMQ B 450     -11.380  16.495  43.690  0.00  0.00    -0.000 A 
ATOM     45  C66 DMQ B 450     -11.698  16.527  45.068  0.00  0.00    -0.000 A 
ATOM     46  C67 DMQ B 450     -12.238  17.712  45.616  0.00  0.00    -0.004 A 
ENDBRANCH  40  41
ENDBRANCH   7  40
TORSDOF 12
ENDMDL
MODEL 9
REMARK minimizedAffinity -7.08269167
REMARK minimizedRMSD -1
REMARK  Name = /home/tchapet/Post-Doc/ARTICLES-DOSSIERS-DES-ARTICLES-EN-REDACTION/NOUVELS-AXES-DE-RECHERCHE-A-REGARDER-URGEMMENT/ARTICLES-EN-REDACTIONS/ARTICLE_MVOTO/Paper2_JCIM/docking_rerun/calibration_outputs/1DMP_DMQ_native.pdb
REMARK  12 active torsions:
REMARK  status: ('A' for Active; 'I' for Inactive)
REMARK    1  A    between atoms: N2_3  and  C2_4
REMARK    2  A    between atoms: C2_4  and  C20_13
REMARK    3  A    between atoms: C3_5  and  C31_20
REMARK    4  A    between atoms: C4_6  and  O4_7
REMARK    5  A    between atoms: C5_8  and  O5_9
REMARK    6  A    between atoms: C6_10  and  C61_27
REMARK    7  A    between atoms: C7_11  and  N7_12
REMARK    8  A    between atoms: C7_11  and  C70_34
REMARK    9  A    between atoms: C28_17  and  N29_18
REMARK   10  A    between atoms: C31_20  and  C32_21
REMARK   11  A    between atoms: C61_27  and  C62_28
REMARK   12  A    between atoms: C72_36  and  N79_37
REMARK                            x       y       z     vdW  Elec       q    Type
REMARK                         _______ _______ _______ _____ _____    ______ ____
ROOT
ATOM      1  C1  DMQ B 450     -16.336  21.898  45.059  0.00  0.00    +0.308 C 
ATOM      2  O1  DMQ B 450     -17.400  21.325  45.190  0.00  0.00    -0.252 OA
ATOM      3  N2  DMQ B 450     -16.109  22.875  45.947  0.00  0.00    -0.259 N 
ATOM      4  C3  DMQ B 450     -15.143  23.980  45.678  0.00  0.00    +0.114 C 
ATOM      5  C4  DMQ B 450     -13.688  23.639  45.573  0.00  0.00    +0.202 C 
ATOM      6  C5  DMQ B 450     -13.296  22.908  44.312  0.00  0.00    +0.202 C 
ATOM      7  C6  DMQ B 450     -13.976  21.563  44.134  0.00  0.00    +0.114 C 
ATOM      8  N7  DMQ B 450     -15.475  21.555  44.045  0.00  0.00    -0.259 N 
ENDROOT
BRANCH   5   9
ATOM      9  O4  DMQ B 450     -13.064  24.880  45.678  0.00  0.00    -0.219 OA
ATOM     10  H   DMQ B 450     -13.372  25.458  44.964  0.00  0.00    +0.000 HD
ENDBRANCH   5   9
BRANCH   6  11
ATOM     11  O5  DMQ B 450     -11.940  22.664  44.418  0.00  0.00    -0.219 OA
ATOM     12  H   DMQ B 450     -11.771  22.110  45.196  0.00  0.00    +0.000 HD
ENDBRANCH   6  11
BRANCH   3  13
ATOM     13  C2  DMQ B 450     -17.002  22.933  47.149  0.00  0.00    +0.122 C 
BRANCH  13  14
ATOM     14  C20 DMQ B 450     -16.371  23.511  48.378  0.00  0.00    -0.001 A 
ATOM     15  C21 DMQ B 450     -16.854  24.720  48.906  0.00  0.00    -0.003 A 
ATOM     16  C22 DMQ B 450     -16.324  25.291  50.075  0.00  0.00    +0.001 A 
ATOM     17  C23 DMQ B 450     -15.291  24.615  50.731  0.00  0.00    +0.018 A 
ATOM     18  C28 DMQ B 450     -14.805  23.386  50.221  0.00  0.00    +0.089 A 
ATOM     19  C29 DMQ B 450     -15.330  22.841  49.029  0.00  0.00    +0.015 A 
BRANCH  18  20
ATOM     20  N29 DMQ B 450     -13.896  22.636  51.016  0.00  0.00    -0.128 N 
ATOM     21  H   DMQ B 450     -13.534  23.023  51.846  0.00  0.00    +0.000 HD
ATOM     22  H   DMQ B 450     -13.628  21.731  50.737  0.00  0.00    +0.000 HD
ENDBRANCH  18  20
ENDBRANCH  13  14
ENDBRANCH   3  13
BRANCH   8  23
ATOM     23  C7  DMQ B 450     -16.039  20.902  42.834  0.00  0.00    +0.122 C 
BRANCH  23  24
ATOM     24  C70 DMQ B 450     -15.765  19.434  42.589  0.00  0.00    -0.001 A 
ATOM     25  C71 DMQ B 450     -15.131  19.044  41.389  0.00  0.00    +0.015 A 
ATOM     26  C72 DMQ B 450     -14.759  17.702  41.188  0.00  0.00    +0.089 A 
ATOM     27  C77 DMQ B 450     -15.041  16.745  42.184  0.00  0.00    +0.018 A 
ATOM     28  C78 DMQ B 450     -15.699  17.121  43.386  0.00  0.00    +0.001 A 
ATOM     29  C79 DMQ B 450     -16.056  18.470  43.585  0.00  0.00    -0.003 A 
BRANCH  26  30
ATOM     30  N79 DMQ B 450     -14.080  17.305  39.994  0.00  0.00    -0.128 N 
ATOM     31  H   DMQ B 450     -13.882  17.971  39.296  0.00  0.00    +0.000 HD
ATOM     32  H   DMQ B 450     -13.811  16.367  39.870  0.00  0.00    +0.000 HD
ENDBRANCH  26  30
ENDBRANCH  23  24
ENDBRANCH   8  23
BRANCH   4  33
ATOM     33  C31 DMQ B 450     -15.703  24.922  44.596  0.00  0.00    +0.049 C 
BRANCH  33  34
ATOM     34  C32 DMQ B 450     -16.523  26.006  45.280  0.00  0.00    -0.020 A 
ATOM     35  C33 DMQ B 450     -15.926  26.882  46.221  0.00  0.00    -0.004 A 
ATOM     36  C34 DMQ B 450     -16.678  27.896  46.826  0.00  0.00    -0.000 A 
ATOM     37  C35 DMQ B 450     -18.030  28.047  46.478  0.00  0.00    -0.000 A 
ATOM     38  C36 DMQ B 450     -18.650  27.193  45.536  0.00  0.00    -0.000 A 
ATOM     39  C37 DMQ B 450     -17.893  26.164  44.940  0.00  0.00    -0.004 A 
ENDBRANCH  33  34
ENDBRANCH   4  33
BRANCH   7  40
ATOM     40  C61 DMQ B 450     -13.510  20.404  45.089  0.00  0.00    +0.049 C 
BRANCH  40  41
ATOM     41  C62 DMQ B 450     -12.677  19.322  44.406  0.00  0.00    -0.020 A 
ATOM     42  C63 DMQ B 450     -12.122  19.556  43.131  0.00  0.00    -0.004 A 
ATOM     43  C64 DMQ B 450     -11.434  18.534  42.453  0.00  0.00    -0.000 A 
ATOM     44  C65 DMQ B 450     -11.293  17.270  43.060  0.00  0.00    -0.000 A 
ATOM     45  C66 DMQ B 450     -11.828  17.013  44.344  0.00  0.00    -0.000 A 
ATOM     46  C67 DMQ B 450     -12.519  18.047  45.014  0.00  0.00    -0.004 A 
ENDBRANCH  40  41
ENDBRANCH   7  40
TORSDOF 12
ENDMDL
