REMARK  Name = /home/tchapet/Post-Doc/ARTICLES-DOSSIERS-DES-ARTICLES-EN-REDACTION/NOUVELS-AXES-DE-RECHERCHE-A-REGARDER-URGEMMENT/ARTICLES-EN-REDACTIONS/ARTICLE_MVOTO/Paper2_JCIM/docking_rerun/calibration_outputs/1SYH_CPW_native.pdb
REMARK  5 active torsions:
REMARK  status: ('A' for Active; 'I' for Inactive)
REMARK    1  A    between atoms: C1_1  and  N1_2
REMARK    2  A    between atoms: C1_1  and  C9_13
REMARK    3  A    between atoms: C9_13  and  C10_14
REMARK    4  A    between atoms: C9_13  and  N3_17
REMARK    5  A    between atoms: C10_14  and  O4_16
REMARK                            x       y       z     vdW  Elec       q    Type
REMARK                         _______ _______ _______ _____ _____    ______ ____
ROOT
ATOM      1  N1  CPW A 501      21.816  14.321  23.353  0.00  0.00    -0.282 N 
ATOM      2  C2  CPW A 501      22.865  15.078  22.613  0.00  0.00    +0.353 A 
ATOM      3  N2  CPW A 501      22.876  14.985  21.279  0.00  0.00    -0.153 N 
ATOM      4  C3  CPW A 501      20.829  13.645  22.621  0.00  0.00    +0.042 A 
ATOM      5  O1  CPW A 501      23.687  15.732  23.289  0.00  0.00    -0.244 OA
ATOM      6  C4  CPW A 501      20.827  13.653  21.250  0.00  0.00    +0.048 A 
ATOM      7  C5  CPW A 501      21.939  14.313  20.534  0.00  0.00    +0.280 A 
ATOM      8  O2  CPW A 501      22.015  14.238  19.301  0.00  0.00    -0.265 OA
ATOM      9  C6  CPW A 501      19.690  12.809  23.187  0.00  0.00    +0.044 C 
ATOM     10  C7  CPW A 501      19.026  12.190  21.916  0.00  0.00    +0.011 C 
ATOM     11  C8  CPW A 501      19.633  12.938  20.679  0.00  0.00    +0.033 C 
ATOM     12  H   CPW A 501      23.609  15.431  20.796  0.00  0.00    +0.000 HD
ENDROOT
BRANCH   1  13
ATOM     13  C1  CPW A 501      21.897  14.240  24.808  0.00  0.00    +0.141 C 
BRANCH  13  14
ATOM     14  C9  CPW A 501      23.083  13.371  25.274  0.00  0.00    +0.217 C 
BRANCH  14  15
ATOM     15  N3  CPW A 501      22.770  11.928  24.957  0.00  0.00    -0.119 NA
ATOM     16  H   CPW A 501      21.896  11.662  25.411  0.00  0.00    +0.000 HD
ATOM     17  H   CPW A 501      23.525  11.333  25.298  0.00  0.00    +0.000 HD
ENDBRANCH  14  15
BRANCH  14  18
ATOM     18  C10 CPW A 501      23.292  13.676  26.782  0.00  0.00    +0.384 C 
ATOM     19  O3  CPW A 501      23.548  14.867  27.112  0.00  0.00    -0.244 OA
BRANCH  18  20
ATOM     20  O4  CPW A 501      23.208  12.685  27.573  0.00  0.00    -0.244 OA
ATOM     21  H   CPW A 501      23.013  11.832  27.237  0.00  0.00    +0.000 HD
ENDBRANCH  18  20
ENDBRANCH  14  18
ENDBRANCH  13  14
ENDBRANCH   1  13
TORSDOF 5
