MODEL 1
REMARK minimizedAffinity -5.50928068
REMARK minimizedRMSD -1
REMARK  Name = /home/tchapet/Post-Doc/ARTICLES-DOSSIERS-DES-ARTICLES-EN-REDACTION/NOUVELS-AXES-DE-RECHERCHE-A-REGARDER-URGEMMENT/ARTICLES-EN-REDACTIONS/ARTICLE_MVOTO/Paper2_JCIM/docking_rerun/calibration_outputs/1SYH_CPW_native.pdb
REMARK  5 active torsions:
REMARK  status: ('A' for Active; 'I' for Inactive)
REMARK    1  A    between atoms: C1_1  and  N1_2
REMARK    2  A    between atoms: C1_1  and  C9_13
REMARK    3  A    between atoms: C9_13  and  C10_14
REMARK    4  A    between atoms: C9_13  and  N3_17
REMARK    5  A    between atoms: C10_14  and  O4_16
REMARK                            x       y       z     vdW  Elec       q    Type
REMARK                         _______ _______ _______ _____ _____    ______ ____
ROOT
ATOM      1  N1  CPW A 501       6.109  14.675  18.797  0.00  0.00    -0.282 N 
ATOM      2  C2  CPW A 501       6.186  13.649  17.719  0.00  0.00    +0.353 A 
ATOM      3  N2  CPW A 501       7.102  13.820  16.760  0.00  0.00    -0.153 N 
ATOM      4  C3  CPW A 501       7.064  15.702  18.820  0.00  0.00    +0.042 A 
ATOM      5  O1  CPW A 501       5.370  12.704  17.765  0.00  0.00    -0.244 OA
ATOM      6  C4  CPW A 501       8.044  15.786  17.865  0.00  0.00    +0.048 A 
ATOM      7  C5  CPW A 501       8.035  14.826  16.741  0.00  0.00    +0.280 A 
ATOM      8  O2  CPW A 501       8.843  14.952  15.811  0.00  0.00    -0.265 OA
ATOM      9  C6  CPW A 501       7.145  16.845  19.821  0.00  0.00    +0.044 C 
ATOM     10  C7  CPW A 501       8.294  17.741  19.259  0.00  0.00    +0.011 C 
ATOM     11  C8  CPW A 501       9.005  16.911  18.134  0.00  0.00    +0.033 C 
ATOM     12  H   CPW A 501       7.107  13.178  16.013  0.00  0.00    +0.000 HD
ENDROOT
BRANCH   1  13
ATOM     13  C1  CPW A 501       4.997  14.626  19.741  0.00  0.00    +0.141 C 
BRANCH  13  14
ATOM     14  C9  CPW A 501       5.205  13.546  20.823  0.00  0.00    +0.217 C 
BRANCH  14  15
ATOM     15  N3  CPW A 501       4.231  12.421  20.566  0.00  0.00    -0.119 NA
ATOM     16  H   CPW A 501       3.279  12.788  20.566  0.00  0.00    +0.000 HD
ATOM     17  H   CPW A 501       4.324  11.717  21.298  0.00  0.00    +0.000 HD
ENDBRANCH  14  15
BRANCH  14  18
ATOM     18  C10 CPW A 501       5.035  14.254  22.195  0.00  0.00    +0.384 C 
ATOM     19  O3  CPW A 501       4.191  15.188  22.275  0.00  0.00    -0.244 OA
BRANCH  18  20
ATOM     20  O4  CPW A 501       5.785  13.844  23.135  0.00  0.00    -0.244 OA
ATOM     21  H   CPW A 501       6.385  13.140  22.984  0.00  0.00    +0.000 HD
ENDBRANCH  18  20
ENDBRANCH  14  18
ENDBRANCH  13  14
ENDBRANCH   1  13
TORSDOF 5
ENDMDL
MODEL 2
REMARK minimizedAffinity -5.46957207
REMARK minimizedRMSD -1
REMARK  Name = /home/tchapet/Post-Doc/ARTICLES-DOSSIERS-DES-ARTICLES-EN-REDACTION/NOUVELS-AXES-DE-RECHERCHE-A-REGARDER-URGEMMENT/ARTICLES-EN-REDACTIONS/ARTICLE_MVOTO/Paper2_JCIM/docking_rerun/calibration_outputs/1SYH_CPW_native.pdb
REMARK  5 active torsions:
REMARK  status: ('A' for Active; 'I' for Inactive)
REMARK    1  A    between atoms: C1_1  and  N1_2
REMARK    2  A    between atoms: C1_1  and  C9_13
REMARK    3  A    between atoms: C9_13  and  C10_14
REMARK    4  A    between atoms: C9_13  and  N3_17
REMARK    5  A    between atoms: C10_14  and  O4_16
REMARK                            x       y       z     vdW  Elec       q    Type
REMARK                         _______ _______ _______ _____ _____    ______ ____
ROOT
ATOM      1  N1  CPW A 501       5.530  -5.880  34.825  0.00  0.00    -0.282 N 
ATOM      2  C2  CPW A 501       6.164  -4.565  34.526  0.00  0.00    +0.353 A 
ATOM      3  N2  CPW A 501       6.466  -4.293  33.252  0.00  0.00    -0.153 N 
ATOM      4  C3  CPW A 501       5.177  -6.716  33.756  0.00  0.00    +0.042 A 
ATOM      5  O1  CPW A 501       6.400  -3.808  35.492  0.00  0.00    -0.244 OA
ATOM      6  C4  CPW A 501       5.423  -6.356  32.457  0.00  0.00    +0.048 A 
ATOM      7  C5  CPW A 501       6.155  -5.101  32.186  0.00  0.00    +0.280 A 
ATOM      8  O2  CPW A 501       6.484  -4.810  31.029  0.00  0.00    -0.265 OA
ATOM      9  C6  CPW A 501       4.538  -8.095  33.853  0.00  0.00    +0.044 C 
ATOM     10  C7  CPW A 501       4.527  -8.596  32.374  0.00  0.00    +0.011 C 
ATOM     11  C8  CPW A 501       4.886  -7.362  31.476  0.00  0.00    +0.033 C 
ATOM     12  H   CPW A 501       6.945  -3.454  33.065  0.00  0.00    +0.000 HD
ENDROOT
BRANCH   1  13
ATOM     13  C1  CPW A 501       5.372  -6.288  36.217  0.00  0.00    +0.141 C 
BRANCH  13  14
ATOM     14  C9  CPW A 501       6.658  -6.923  36.783  0.00  0.00    +0.217 C 
BRANCH  14  15
ATOM     15  N3  CPW A 501       6.456  -8.418  36.865  0.00  0.00    -0.119 NA
ATOM     16  H   CPW A 501       5.640  -8.619  37.444  0.00  0.00    +0.000 HD
ATOM     17  H   CPW A 501       7.282  -8.851  37.279  0.00  0.00    +0.000 HD
ENDBRANCH  14  15
BRANCH  14  18
ATOM     18  C10 CPW A 501       6.936  -6.228  38.143  0.00  0.00    +0.384 C 
ATOM     19  O3  CPW A 501       6.654  -6.862  39.198  0.00  0.00    -0.244 OA
BRANCH  18  20
ATOM     20  O4  CPW A 501       7.412  -5.051  38.087  0.00  0.00    -0.244 OA
ATOM     21  H   CPW A 501       7.591  -4.657  37.255  0.00  0.00    +0.000 HD
ENDBRANCH  18  20
ENDBRANCH  14  18
ENDBRANCH  13  14
ENDBRANCH   1  13
TORSDOF 5
ENDMDL
MODEL 3
REMARK minimizedAffinity -5.45572567
REMARK minimizedRMSD -1
REMARK  Name = /home/tchapet/Post-Doc/ARTICLES-DOSSIERS-DES-ARTICLES-EN-REDACTION/NOUVELS-AXES-DE-RECHERCHE-A-REGARDER-URGEMMENT/ARTICLES-EN-REDACTIONS/ARTICLE_MVOTO/Paper2_JCIM/docking_rerun/calibration_outputs/1SYH_CPW_native.pdb
REMARK  5 active torsions:
REMARK  status: ('A' for Active; 'I' for Inactive)
REMARK    1  A    between atoms: C1_1  and  N1_2
REMARK    2  A    between atoms: C1_1  and  C9_13
REMARK    3  A    between atoms: C9_13  and  C10_14
REMARK    4  A    between atoms: C9_13  and  N3_17
REMARK    5  A    between atoms: C10_14  and  O4_16
REMARK                            x       y       z     vdW  Elec       q    Type
REMARK                         _______ _______ _______ _____ _____    ______ ____
ROOT
ATOM      1  N1  CPW A 501       6.921  15.780  19.593  0.00  0.00    -0.282 N 
ATOM      2  C2  CPW A 501       7.971  16.120  18.592  0.00  0.00    +0.353 A 
ATOM      3  N2  CPW A 501       8.889  17.029  18.936  0.00  0.00    -0.153 N 
ATOM      4  C3  CPW A 501       7.008  16.337  20.877  0.00  0.00    +0.042 A 
ATOM      5  O1  CPW A 501       7.911  15.552  17.481  0.00  0.00    -0.244 OA
ATOM      6  C4  CPW A 501       8.022  17.196  21.215  0.00  0.00    +0.048 A 
ATOM      7  C5  CPW A 501       8.988  17.610  20.175  0.00  0.00    +0.280 A 
ATOM      8  O2  CPW A 501       9.844  18.467  20.429  0.00  0.00    -0.265 OA
ATOM      9  C6  CPW A 501       6.033  16.129  22.027  0.00  0.00    +0.044 C 
ATOM     10  C7  CPW A 501       6.553  17.107  23.128  0.00  0.00    +0.011 C 
ATOM     11  C8  CPW A 501       7.966  17.602  22.662  0.00  0.00    +0.033 C 
ATOM     12  H   CPW A 501       9.542  17.301  18.250  0.00  0.00    +0.000 HD
ENDROOT
BRANCH   1  13
ATOM     13  C1  CPW A 501       5.795  14.948  19.182  0.00  0.00    +0.141 C 
BRANCH  13  14
ATOM     14  C9  CPW A 501       5.996  13.469  19.571  0.00  0.00    +0.217 C 
BRANCH  14  15
ATOM     15  N3  CPW A 501       6.719  12.773  18.442  0.00  0.00    -0.119 NA
ATOM     16  H   CPW A 501       6.181  12.875  17.581  0.00  0.00    +0.000 HD
ATOM     17  H   CPW A 501       6.822  11.783  18.663  0.00  0.00    +0.000 HD
ENDBRANCH  14  15
BRANCH  14  18
ATOM     18  C10 CPW A 501       4.589  12.898  19.894  0.00  0.00    +0.384 C 
ATOM     19  O3  CPW A 501       3.822  12.640  18.925  0.00  0.00    -0.244 OA
BRANCH  18  20
ATOM     20  O4  CPW A 501       4.309  12.754  21.125  0.00  0.00    -0.244 OA
ATOM     21  H   CPW A 501       4.944  12.973  21.779  0.00  0.00    +0.000 HD
ENDBRANCH  18  20
ENDBRANCH  14  18
ENDBRANCH  13  14
ENDBRANCH   1  13
TORSDOF 5
ENDMDL
MODEL 4
REMARK minimizedAffinity -5.4303546
REMARK minimizedRMSD -1
REMARK  Name = /home/tchapet/Post-Doc/ARTICLES-DOSSIERS-DES-ARTICLES-EN-REDACTION/NOUVELS-AXES-DE-RECHERCHE-A-REGARDER-URGEMMENT/ARTICLES-EN-REDACTIONS/ARTICLE_MVOTO/Paper2_JCIM/docking_rerun/calibration_outputs/1SYH_CPW_native.pdb
REMARK  5 active torsions:
REMARK  status: ('A' for Active; 'I' for Inactive)
REMARK    1  A    between atoms: C1_1  and  N1_2
REMARK    2  A    between atoms: C1_1  and  C9_13
REMARK    3  A    between atoms: C9_13  and  C10_14
REMARK    4  A    between atoms: C9_13  and  N3_17
REMARK    5  A    between atoms: C10_14  and  O4_16
REMARK                            x       y       z     vdW  Elec       q    Type
REMARK                         _______ _______ _______ _____ _____    ______ ____
ROOT
ATOM      1  N1  CPW A 501       6.398  15.792  20.499  0.00  0.00    -0.282 N 
ATOM      2  C2  CPW A 501       6.148  15.630  21.959  0.00  0.00    +0.353 A 
ATOM      3  N2  CPW A 501       7.044  16.149  22.806  0.00  0.00    -0.153 N 
ATOM      4  C3  CPW A 501       7.487  16.572  20.084  0.00  0.00    +0.042 A 
ATOM      5  O1  CPW A 501       5.129  14.993  22.301  0.00  0.00    -0.244 OA
ATOM      6  C4  CPW A 501       8.328  17.163  20.991  0.00  0.00    +0.048 A 
ATOM      7  C5  CPW A 501       8.132  16.897  22.431  0.00  0.00    +0.280 A 
ATOM      8  O2  CPW A 501       8.944  17.330  23.259  0.00  0.00    -0.265 OA
ATOM      9  C6  CPW A 501       7.915  16.844  18.649  0.00  0.00    +0.044 C 
ATOM     10  C7  CPW A 501       9.257  17.627  18.811  0.00  0.00    +0.011 C 
ATOM     11  C8  CPW A 501       9.372  18.018  20.325  0.00  0.00    +0.033 C 
ATOM     12  H   CPW A 501       6.913  15.983  23.768  0.00  0.00    +0.000 HD
ENDROOT
BRANCH   1  13
ATOM     13  C1  CPW A 501       5.552  15.071  19.553  0.00  0.00    +0.141 C 
BRANCH  13  14
ATOM     14  C9  CPW A 501       5.911  13.572  19.483  0.00  0.00    +0.217 C 
BRANCH  14  15
ATOM     15  N3  CPW A 501       6.707  13.332  18.222  0.00  0.00    -0.119 NA
ATOM     16  H   CPW A 501       6.164  13.636  17.414  0.00  0.00    +0.000 HD
ATOM     17  H   CPW A 501       6.916  12.337  18.136  0.00  0.00    +0.000 HD
ENDBRANCH  14  15
BRANCH  14  18
ATOM     18  C10 CPW A 501       4.573  12.790  19.567  0.00  0.00    +0.384 C 
ATOM     19  O3  CPW A 501       3.952  12.568  18.491  0.00  0.00    -0.244 OA
BRANCH  18  20
ATOM     20  O4  CPW A 501       4.193  12.450  20.731  0.00  0.00    -0.244 OA
ATOM     21  H   CPW A 501       4.721  12.658  21.476  0.00  0.00    +0.000 HD
ENDBRANCH  18  20
ENDBRANCH  14  18
ENDBRANCH  13  14
ENDBRANCH   1  13
TORSDOF 5
ENDMDL
MODEL 5
REMARK minimizedAffinity -5.42877436
REMARK minimizedRMSD -1
REMARK  Name = /home/tchapet/Post-Doc/ARTICLES-DOSSIERS-DES-ARTICLES-EN-REDACTION/NOUVELS-AXES-DE-RECHERCHE-A-REGARDER-URGEMMENT/ARTICLES-EN-REDACTIONS/ARTICLE_MVOTO/Paper2_JCIM/docking_rerun/calibration_outputs/1SYH_CPW_native.pdb
REMARK  5 active torsions:
REMARK  status: ('A' for Active; 'I' for Inactive)
REMARK    1  A    between atoms: C1_1  and  N1_2
REMARK    2  A    between atoms: C1_1  and  C9_13
REMARK    3  A    between atoms: C9_13  and  C10_14
REMARK    4  A    between atoms: C9_13  and  N3_17
REMARK    5  A    between atoms: C10_14  and  O4_16
REMARK                            x       y       z     vdW  Elec       q    Type
REMARK                         _______ _______ _______ _____ _____    ______ ____
ROOT
ATOM      1  N1  CPW A 501       5.404  14.100  19.166  0.00  0.00    -0.282 N 
ATOM      2  C2  CPW A 501       4.484  13.212  19.932  0.00  0.00    +0.353 A 
ATOM      3  N2  CPW A 501       4.449  13.349  21.261  0.00  0.00    -0.153 N 
ATOM      4  C3  CPW A 501       6.098  15.105  19.854  0.00  0.00    +0.042 A 
ATOM      5  O1  CPW A 501       3.821  12.374  19.284  0.00  0.00    -0.244 OA
ATOM      6  C4  CPW A 501       5.961  15.268  21.208  0.00  0.00    +0.048 A 
ATOM      7  C5  CPW A 501       5.134  14.307  21.967  0.00  0.00    +0.280 A 
ATOM      8  O2  CPW A 501       5.084  14.370  23.202  0.00  0.00    -0.265 OA
ATOM      9  C6  CPW A 501       7.089  16.096  19.259  0.00  0.00    +0.044 C 
ATOM     10  C7  CPW A 501       7.645  16.850  20.508  0.00  0.00    +0.011 C 
ATOM     11  C8  CPW A 501       6.729  16.457  21.719  0.00  0.00    +0.033 C 
ATOM     12  H   CPW A 501       3.892  12.718  21.771  0.00  0.00    +0.000 HD
ENDROOT
BRANCH   1  13
ATOM     13  C1  CPW A 501       5.614  13.843  17.745  0.00  0.00    +0.141 C 
BRANCH  13  14
ATOM     14  C9  CPW A 501       6.714  12.789  17.504  0.00  0.00    +0.217 C 
BRANCH  14  15
ATOM     15  N3  CPW A 501       7.865  13.457  16.790  0.00  0.00    -0.119 NA
ATOM     16  H   CPW A 501       7.531  13.871  15.920  0.00  0.00    +0.000 HD
ATOM     17  H   CPW A 501       8.585  12.764  16.583  0.00  0.00    +0.000 HD
ENDBRANCH  14  15
BRANCH  14  18
ATOM     18  C10 CPW A 501       6.049  11.624  16.721  0.00  0.00    +0.384 C 
ATOM     19  O3  CPW A 501       6.276  11.543  15.482  0.00  0.00    -0.244 OA
BRANCH  18  20
ATOM     20  O4  CPW A 501       5.304  10.847  17.395  0.00  0.00    -0.244 OA
ATOM     21  H   CPW A 501       5.193  10.984  18.315  0.00  0.00    +0.000 HD
ENDBRANCH  18  20
ENDBRANCH  14  18
ENDBRANCH  13  14
ENDBRANCH   1  13
TORSDOF 5
ENDMDL
MODEL 6
REMARK minimizedAffinity -5.40424776
REMARK minimizedRMSD -1
REMARK  Name = /home/tchapet/Post-Doc/ARTICLES-DOSSIERS-DES-ARTICLES-EN-REDACTION/NOUVELS-AXES-DE-RECHERCHE-A-REGARDER-URGEMMENT/ARTICLES-EN-REDACTIONS/ARTICLE_MVOTO/Paper2_JCIM/docking_rerun/calibration_outputs/1SYH_CPW_native.pdb
REMARK  5 active torsions:
REMARK  status: ('A' for Active; 'I' for Inactive)
REMARK    1  A    between atoms: C1_1  and  N1_2
REMARK    2  A    between atoms: C1_1  and  C9_13
REMARK    3  A    between atoms: C9_13  and  C10_14
REMARK    4  A    between atoms: C9_13  and  N3_17
REMARK    5  A    between atoms: C10_14  and  O4_16
REMARK                            x       y       z     vdW  Elec       q    Type
REMARK                         _______ _______ _______ _____ _____    ______ ____
ROOT
ATOM      1  N1  CPW A 501       7.564  16.883  20.835  0.00  0.00    -0.282 N 
ATOM      2  C2  CPW A 501       8.085  16.744  19.445  0.00  0.00    +0.353 A 
ATOM      3  N2  CPW A 501       7.691  15.682  18.736  0.00  0.00    -0.153 N 
ATOM      4  C3  CPW A 501       6.607  15.966  21.291  0.00  0.00    +0.042 A 
ATOM      5  O1  CPW A 501       8.880  17.618  19.039  0.00  0.00    -0.244 OA
ATOM      6  C4  CPW A 501       6.163  14.942  20.494  0.00  0.00    +0.048 A 
ATOM      7  C5  CPW A 501       6.774  14.753  19.161  0.00  0.00    +0.280 A 
ATOM      8  O2  CPW A 501       6.467  13.773  18.471  0.00  0.00    -0.265 OA
ATOM      9  C6  CPW A 501       5.968  15.929  22.672  0.00  0.00    +0.044 C 
ATOM     10  C7  CPW A 501       5.117  14.619  22.645  0.00  0.00    +0.011 C 
ATOM     11  C8  CPW A 501       5.078  14.136  21.154  0.00  0.00    +0.033 C 
ATOM     12  H   CPW A 501       8.088  15.556  17.843  0.00  0.00    +0.000 HD
ENDROOT
BRANCH   1  13
ATOM     13  C1  CPW A 501       8.126  17.915  21.700  0.00  0.00    +0.141 C 
BRANCH  13  14
ATOM     14  C9  CPW A 501       9.180  17.346  22.671  0.00  0.00    +0.217 C 
BRANCH  14  15
ATOM     15  N3  CPW A 501       8.916  17.910  24.047  0.00  0.00    -0.119 NA
ATOM     16  H   CPW A 501       8.940  18.929  24.007  0.00  0.00    +0.000 HD
ATOM     17  H   CPW A 501       9.630  17.578  24.694  0.00  0.00    +0.000 HD
ENDBRANCH  14  15
BRANCH  14  18
ATOM     18  C10 CPW A 501      10.570  17.703  22.077  0.00  0.00    +0.384 C 
ATOM     19  O3  CPW A 501      10.720  18.853  21.580  0.00  0.00    -0.244 OA
BRANCH  18  20
ATOM     20  O4  CPW A 501      11.451  16.788  22.121  0.00  0.00    -0.244 OA
ATOM     21  H   CPW A 501      11.250  15.960  22.511  0.00  0.00    +0.000 HD
ENDBRANCH  18  20
ENDBRANCH  14  18
ENDBRANCH  13  14
ENDBRANCH   1  13
TORSDOF 5
ENDMDL
MODEL 7
REMARK minimizedAffinity -5.39398193
REMARK minimizedRMSD -1
REMARK  Name = /home/tchapet/Post-Doc/ARTICLES-DOSSIERS-DES-ARTICLES-EN-REDACTION/NOUVELS-AXES-DE-RECHERCHE-A-REGARDER-URGEMMENT/ARTICLES-EN-REDACTIONS/ARTICLE_MVOTO/Paper2_JCIM/docking_rerun/calibration_outputs/1SYH_CPW_native.pdb
REMARK  5 active torsions:
REMARK  status: ('A' for Active; 'I' for Inactive)
REMARK    1  A    between atoms: C1_1  and  N1_2
REMARK    2  A    between atoms: C1_1  and  C9_13
REMARK    3  A    between atoms: C9_13  and  C10_14
REMARK    4  A    between atoms: C9_13  and  N3_17
REMARK    5  A    between atoms: C10_14  and  O4_16
REMARK                            x       y       z     vdW  Elec       q    Type
REMARK                         _______ _______ _______ _____ _____    ______ ____
ROOT
ATOM      1  N1  CPW A 501       6.969  15.572  18.974  0.00  0.00    -0.282 N 
ATOM      2  C2  CPW A 501       7.431  16.402  20.122  0.00  0.00    +0.353 A 
ATOM      3  N2  CPW A 501       6.886  16.166  21.321  0.00  0.00    -0.153 N 
ATOM      4  C3  CPW A 501       6.078  14.517  19.220  0.00  0.00    +0.042 A 
ATOM      5  O1  CPW A 501       8.281  17.286  19.887  0.00  0.00    -0.244 OA
ATOM      6  C4  CPW A 501       5.615  14.254  20.484  0.00  0.00    +0.048 A 
ATOM      7  C5  CPW A 501       5.995  15.157  21.590  0.00  0.00    +0.280 A 
ATOM      8  O2  CPW A 501       5.502  15.003  22.715  0.00  0.00    -0.265 OA
ATOM      9  C6  CPW A 501       5.481  13.571  18.187  0.00  0.00    +0.044 C 
ATOM     10  C7  CPW A 501       4.460  12.726  19.014  0.00  0.00    +0.011 C 
ATOM     11  C8  CPW A 501       4.742  13.030  20.526  0.00  0.00    +0.033 C 
ATOM     12  H   CPW A 501       7.143  16.759  22.064  0.00  0.00    +0.000 HD
ENDROOT
BRANCH   1  13
ATOM     13  C1  CPW A 501       7.392  15.933  17.625  0.00  0.00    +0.141 C 
BRANCH  13  14
ATOM     14  C9  CPW A 501       8.642  15.148  17.181  0.00  0.00    +0.217 C 
BRANCH  14  15
ATOM     15  N3  CPW A 501       9.864  15.980  17.492  0.00  0.00    -0.119 NA
ATOM     16  H   CPW A 501       9.789  16.882  17.021  0.00  0.00    +0.000 HD
ATOM     17  H   CPW A 501      10.699  15.495  17.164  0.00  0.00    +0.000 HD
ENDBRANCH  14  15
BRANCH  14  18
ATOM     18  C10 CPW A 501       8.447  14.814  15.677  0.00  0.00    +0.384 C 
ATOM     19  O3  CPW A 501       7.283  14.523  15.285  0.00  0.00    -0.244 OA
BRANCH  18  20
ATOM     20  O4  CPW A 501       9.492  14.841  14.955  0.00  0.00    -0.244 OA
ATOM     21  H   CPW A 501      10.318  15.070  15.334  0.00  0.00    +0.000 HD
ENDBRANCH  18  20
ENDBRANCH  14  18
ENDBRANCH  13  14
ENDBRANCH   1  13
TORSDOF 5
ENDMDL
MODEL 8
REMARK minimizedAffinity -5.3830018
REMARK minimizedRMSD -1
REMARK  Name = /home/tchapet/Post-Doc/ARTICLES-DOSSIERS-DES-ARTICLES-EN-REDACTION/NOUVELS-AXES-DE-RECHERCHE-A-REGARDER-URGEMMENT/ARTICLES-EN-REDACTIONS/ARTICLE_MVOTO/Paper2_JCIM/docking_rerun/calibration_outputs/1SYH_CPW_native.pdb
REMARK  5 active torsions:
REMARK  status: ('A' for Active; 'I' for Inactive)
REMARK    1  A    between atoms: C1_1  and  N1_2
REMARK    2  A    between atoms: C1_1  and  C9_13
REMARK    3  A    between atoms: C9_13  and  C10_14
REMARK    4  A    between atoms: C9_13  and  N3_17
REMARK    5  A    between atoms: C10_14  and  O4_16
REMARK                            x       y       z     vdW  Elec       q    Type
REMARK                         _______ _______ _______ _____ _____    ______ ____
ROOT
ATOM      1  N1  CPW A 501       5.961  14.946  19.142  0.00  0.00    -0.282 N 
ATOM      2  C2  CPW A 501       7.152  15.839  19.219  0.00  0.00    +0.353 A 
ATOM      3  N2  CPW A 501       8.153  15.618  18.361  0.00  0.00    -0.153 N 
ATOM      4  C3  CPW A 501       5.895  13.998  18.110  0.00  0.00    +0.042 A 
ATOM      5  O1  CPW A 501       7.151  16.724  20.101  0.00  0.00    -0.244 OA
ATOM      6  C4  CPW A 501       6.908  13.868  17.195  0.00  0.00    +0.048 A 
ATOM      7  C5  CPW A 501       8.130  14.684  17.355  0.00  0.00    +0.280 A 
ATOM      8  O2  CPW A 501       9.098  14.505  16.606  0.00  0.00    -0.265 OA
ATOM      9  C6  CPW A 501       4.779  12.990  17.872  0.00  0.00    +0.044 C 
ATOM     10  C7  CPW A 501       5.324  12.116  16.698  0.00  0.00    +0.011 C 
ATOM     11  C8  CPW A 501       6.587  12.852  16.133  0.00  0.00    +0.033 C 
ATOM     12  H   CPW A 501       8.966  16.165  18.457  0.00  0.00    +0.000 HD
ENDROOT
BRANCH   1  13
ATOM     13  C1  CPW A 501       4.945  15.031  20.186  0.00  0.00    +0.141 C 
BRANCH  13  14
ATOM     14  C9  CPW A 501       5.245  14.081  21.364  0.00  0.00    +0.217 C 
BRANCH  14  15
ATOM     15  N3  CPW A 501       4.126  13.072  21.459  0.00  0.00    -0.119 NA
ATOM     16  H   CPW A 501       3.237  13.560  21.575  0.00  0.00    +0.000 HD
ATOM     17  H   CPW A 501       4.285  12.461  22.261  0.00  0.00    +0.000 HD
ENDBRANCH  14  15
BRANCH  14  18
ATOM     18  C10 CPW A 501       5.426  14.974  22.621  0.00  0.00    +0.384 C 
ATOM     19  O3  CPW A 501       4.421  15.157  23.362  0.00  0.00    -0.244 OA
BRANCH  18  20
ATOM     20  O4  CPW A 501       6.581  15.475  22.794  0.00  0.00    -0.244 OA
ATOM     21  H   CPW A 501       7.270  15.283  22.189  0.00  0.00    +0.000 HD
ENDBRANCH  18  20
ENDBRANCH  14  18
ENDBRANCH  13  14
ENDBRANCH   1  13
TORSDOF 5
ENDMDL
MODEL 9
REMARK minimizedAffinity -5.3289361
REMARK minimizedRMSD -1
REMARK  Name = /home/tchapet/Post-Doc/ARTICLES-DOSSIERS-DES-ARTICLES-EN-REDACTION/NOUVELS-AXES-DE-RECHERCHE-A-REGARDER-URGEMMENT/ARTICLES-EN-REDACTIONS/ARTICLE_MVOTO/Paper2_JCIM/docking_rerun/calibration_outputs/1SYH_CPW_native.pdb
REMARK  5 active torsions:
REMARK  status: ('A' for Active; 'I' for Inactive)
REMARK    1  A    between atoms: C1_1  and  N1_2
REMARK    2  A    between atoms: C1_1  and  C9_13
REMARK    3  A    between atoms: C9_13  and  C10_14
REMARK    4  A    between atoms: C9_13  and  N3_17
REMARK    5  A    between atoms: C10_14  and  O4_16
REMARK                            x       y       z     vdW  Elec       q    Type
REMARK                         _______ _______ _______ _____ _____    ______ ____
ROOT
ATOM      1  N1  CPW A 501       6.169  -5.266  35.304  0.00  0.00    -0.282 N 
ATOM      2  C2  CPW A 501       6.414  -4.185  34.309  0.00  0.00    +0.353 A 
ATOM      3  N2  CPW A 501       6.243  -4.479  33.015  0.00  0.00    -0.153 N 
ATOM      4  C3  CPW A 501       5.665  -6.496  34.855  0.00  0.00    +0.042 A 
ATOM      5  O1  CPW A 501       6.791  -3.077  34.744  0.00  0.00    -0.244 OA
ATOM      6  C4  CPW A 501       5.417  -6.722  33.526  0.00  0.00    +0.048 A 
ATOM      7  C5  CPW A 501       5.774  -5.679  32.541  0.00  0.00    +0.280 A 
ATOM      8  O2  CPW A 501       5.661  -5.904  31.329  0.00  0.00    -0.265 OA
ATOM      9  C6  CPW A 501       5.365  -7.721  35.706  0.00  0.00    +0.044 C 
ATOM     10  C7  CPW A 501       4.987  -8.812  34.654  0.00  0.00    +0.011 C 
ATOM     11  C8  CPW A 501       4.802  -8.073  33.284  0.00  0.00    +0.033 C 
ATOM     12  H   CPW A 501       6.469  -3.784  32.355  0.00  0.00    +0.000 HD
ENDROOT
BRANCH   1  13
ATOM     13  C1  CPW A 501       6.536  -5.040  36.698  0.00  0.00    +0.141 C 
BRANCH  13  14
ATOM     14  C9  CPW A 501       5.364  -4.465  37.520  0.00  0.00    +0.217 C 
BRANCH  14  15
ATOM     15  N3  CPW A 501       5.408  -2.959  37.423  0.00  0.00    -0.119 NA
ATOM     16  H   CPW A 501       6.312  -2.623  37.756  0.00  0.00    +0.000 HD
ATOM     17  H   CPW A 501       4.665  -2.559  37.997  0.00  0.00    +0.000 HD
ENDBRANCH  14  15
BRANCH  14  18
ATOM     18  C10 CPW A 501       5.511  -5.030  38.959  0.00  0.00    +0.384 C 
ATOM     19  O3  CPW A 501       4.466  -5.137  39.659  0.00  0.00    -0.244 OA
BRANCH  18  20
ATOM     20  O4  CPW A 501       6.690  -5.325  39.329  0.00  0.00    -0.244 OA
ATOM     21  H   CPW A 501       7.409  -5.213  38.739  0.00  0.00    +0.000 HD
ENDBRANCH  18  20
ENDBRANCH  14  18
ENDBRANCH  13  14
ENDBRANCH   1  13
TORSDOF 5
ENDMDL
