REMARK  Name = /home/tchapet/Post-Doc/ARTICLES-DOSSIERS-DES-ARTICLES-EN-REDACTION/NOUVELS-AXES-DE-RECHERCHE-A-REGARDER-URGEMMENT/ARTICLES-EN-REDACTIONS/ARTICLE_MVOTO/Paper2_JCIM/docking_rerun/calibration_outputs/2XJX_XJX_native.pdb
REMARK  9 active torsions:
REMARK  status: ('A' for Active; 'I' for Inactive)
REMARK    1  A    between atoms: C1_1  and  C2_2
REMARK    2  A    between atoms: C2_2  and  C3_3
REMARK    3  A    between atoms: C2_2  and  C4_4
REMARK    4  A    between atoms: C6_6  and  C7_7
REMARK    5  A    between atoms: C14_14  and  C15_15
REMARK    6  A    between atoms: C15_15  and  N16_16
REMARK    7  A    between atoms: N20_19  and  C22_20
REMARK    8  A    between atoms: C28_26  and  O29_27
REMARK    9  A    between atoms: C31_29  and  O32_30
REMARK                            x       y       z     vdW  Elec       q    Type
REMARK                         _______ _______ _______ _____ _____    ______ ____
ROOT
ATOM      1  C7  XJX A1232      15.763  -4.569   8.623  0.00  0.00    +0.268 C 
ATOM      2  O8  XJX A1232      16.684  -4.985   9.297  0.00  0.00    -0.267 OA
ATOM      3  N9  XJX A1232      15.793  -4.597   7.283  0.00  0.00    -0.272 N 
ATOM      4  C10 XJX A1232      16.882  -5.218   6.515  0.00  0.00    +0.083 A 
ATOM      5  C11 XJX A1232      16.266  -5.375   5.153  0.00  0.00    +0.019 A 
ATOM      6  C12 XJX A1232      16.789  -5.984   4.019  0.00  0.00    +0.001 A 
ATOM      7  C13 XJX A1232      16.053  -6.015   2.848  0.00  0.00    -0.003 A 
ATOM      8  C14 XJX A1232      14.788  -5.437   2.793  0.00  0.00    -0.006 A 
ATOM      9  C25 XJX A1232      14.282  -4.834   3.941  0.00  0.00    -0.001 A 
ATOM     10  C26 XJX A1232      15.019  -4.810   5.112  0.00  0.00    +0.019 A 
ATOM     11  C27 XJX A1232      14.667  -4.183   6.433  0.00  0.00    +0.083 A 
ENDROOT
BRANCH   1  14
ATOM     12  C4  XJX A1232      13.280  -1.925   9.716  0.00  0.00    +0.017 A 
ATOM     13  C5  XJX A1232      14.378  -2.556   9.133  0.00  0.00    +0.007 A 
ATOM     14  C6  XJX A1232      14.593  -3.928   9.284  0.00  0.00    +0.095 A 
ATOM     15  C28 XJX A1232      13.715  -4.685  10.039  0.00  0.00    +0.203 A 
ATOM     16  C30 XJX A1232      12.626  -4.073  10.659  0.00  0.00    +0.084 A 
ATOM     17  C31 XJX A1232      12.417  -2.711  10.512  0.00  0.00    +0.195 A 
BRANCH  12  19
ATOM     18  C1  XJX A1232      13.790   0.293  10.800  0.00  0.00    +0.005 C 
ATOM     19  C2  XJX A1232      13.097  -0.409   9.627  0.00  0.00    +0.025 C 
ATOM     20  C3  XJX A1232      13.565   0.183   8.302  0.00  0.00    +0.005 C 
ENDBRANCH  12  19
BRANCH  15  21
ATOM     21  O29 XJX A1232      13.937  -6.030  10.185  0.00  0.00    -0.286 OA
ATOM     22  H   XJX A1232      14.672  -6.432   9.764  0.00  0.00    +0.000 HD
ENDBRANCH  15  21
BRANCH  17  23
ATOM     23  O32 XJX A1232      11.320  -2.163  11.117  0.00  0.00    -0.287 OA
ATOM     24  H   XJX A1232      11.150  -1.245  11.037  0.00  0.00    +0.000 HD
ENDBRANCH  17  23
ENDBRANCH   1  14
BRANCH   8  25
ATOM     25  C15 XJX A1232      13.987  -5.448   1.514  0.00  0.00    +0.099 C 
BRANCH  25  26
ATOM     26  N16 XJX A1232      14.297  -4.266   0.628  0.00  0.00    -0.267 NA
ATOM     27  C18 XJX A1232      14.308  -2.986   1.412  0.00  0.00    +0.090 C 
ATOM     28  C19 XJX A1232      14.638  -1.795   0.524  0.00  0.00    +0.090 C 
ATOM     29  N20 XJX A1232      15.958  -2.012  -0.141  0.00  0.00    -0.269 NA
ATOM     30  C22 XJX A1232      16.369  -0.825  -0.948  0.00  0.00    +0.090 C 
ATOM     31  C23 XJX A1232      15.912  -3.253  -0.973  0.00  0.00    +0.090 C 
ATOM     32  C24 XJX A1232      15.599  -4.453  -0.093  0.00  0.00    +0.090 C 
ENDBRANCH  25  26
ENDBRANCH   8  25
TORSDOF 6
