REMARK  Name = /home/tchapet/Post-Doc/ARTICLES-DOSSIERS-DES-ARTICLES-EN-REDACTION/NOUVELS-AXES-DE-RECHERCHE-A-REGARDER-URGEMMENT/ARTICLES-EN-REDACTIONS/ARTICLE_MVOTO/Paper2_JCIM/docking_rerun/calibration_outputs/6Y2F_O6K_native.pdb
REMARK  18 active torsions:
REMARK  status: ('A' for Active; 'I' for Inactive)
REMARK    1  A    between atoms: C24_2  and  O25_3
REMARK    2  A    between atoms: C24_2  and  N23_8
REMARK    3  A    between atoms: O25_3  and  C27_4
REMARK    4  A    between atoms: C27_4  and  C31_5
REMARK    5  A    between atoms: C27_4  and  C32_6
REMARK    6  A    between atoms: C27_4  and  C33_7
REMARK    7  A    between atoms: N15_15  and  C20_16
REMARK    8  A    between atoms: C20_16  and  C22_17
REMARK    9  A    between atoms: C20_16  and  C36_21
REMARK   10  A    between atoms: C22_17  and  C29_18
REMARK   11  A    between atoms: N38_23  and  C40_24
REMARK   12  A    between atoms: C40_24  and  C42_25
REMARK   13  A    between atoms: C40_24  and  C57_32
REMARK   14  A    between atoms: C42_25  and  C45_26
REMARK   15  A    between atoms: C57_32  and  O40_33
REMARK   16  A    between atoms: C57_32  and  C35_34
REMARK   17  A    between atoms: N36_36  and  C13_37
REMARK   18  A    between atoms: C13_37  and  C14_38
REMARK                            x       y       z     vdW  Elec       q    Type
REMARK                         _______ _______ _______ _____ _____    ______ ____
ROOT
ATOM      1  C36 O6K A 502       9.908   0.711  21.576  0.00  0.00    +0.260 C 
ATOM      2  O37 O6K A 502      11.128   0.554  21.519  0.00  0.00    -0.272 OA
ATOM      3  N38 O6K A 502       9.195   1.270  20.584  0.00  0.00    -0.203 N 
ATOM      4  H   O6K A 502       8.217   1.323  20.679  0.00  0.00    +0.000 HD
ENDROOT
BRANCH   1   5
ATOM      5  C20 O6K A 502       9.148   0.279  22.802  0.00  0.00    +0.158 C 
BRANCH   5  13
ATOM      6  N23 O6K A 502      10.377  -4.374  22.318  0.00  0.00    -0.142 NA
ATOM      7  C19 O6K A 502      10.511  -3.257  23.071  0.00  0.00    +0.112 C 
ATOM      8  C21 O6K A 502       9.776  -2.076  22.588  0.00  0.00    +0.265 C 
ATOM      9  O22 O6K A 502       9.071  -2.127  21.535  0.00  0.00    -0.268 OA
ATOM     10  C18 O6K A 502      11.312  -3.134  24.223  0.00  0.00    +0.075 C 
ATOM     11  C17 O6K A 502      11.391  -1.923  24.880  0.00  0.00    -0.004 C 
ATOM     12  C16 O6K A 502      10.667  -0.827  24.422  0.00  0.00    +0.064 C 
ATOM     13  N15 O6K A 502       9.874  -0.879  23.325  0.00  0.00    -0.246 N 
BRANCH   6  15
ATOM     14  O26 O6K A 502      11.831  -5.792  23.341  0.00  0.00    -0.224 OA
ATOM     15  C24 O6K A 502      11.055  -5.520  22.439  0.00  0.00    +0.425 C 
BRANCH  15  16
ATOM     16  O25 O6K A 502      10.794  -6.486  21.388  0.00  0.00    -0.441 OA
BRANCH  16  17
ATOM     17  C27 O6K A 502      11.592  -7.649  21.100  0.00  0.00    +0.138 C 
ATOM     18  C31 O6K A 502      11.566  -8.561  22.339  0.00  0.00    +0.044 C 
ATOM     19  C32 O6K A 502      11.003  -8.363  19.874  0.00  0.00    +0.044 C 
ATOM     20  C33 O6K A 502      13.034  -7.252  20.756  0.00  0.00    +0.044 C 
ENDBRANCH  16  17
ENDBRANCH  15  16
ENDBRANCH   6  15
ENDBRANCH   5  13
BRANCH   5  21
ATOM     21  C22 O6K A 502       9.003   1.431  23.806  0.00  0.00    +0.030 C 
BRANCH  21  22
ATOM     22  C29 O6K A 502       8.204   0.991  25.035  0.00  0.00    +0.002 C 
ATOM     23  C34 O6K A 502       7.462   2.042  25.855  0.00  0.00    +0.000 C 
ATOM     24  C30 O6K A 502       6.684   1.164  24.883  0.00  0.00    +0.000 C 
ENDBRANCH  21  22
ENDBRANCH   5  21
ENDBRANCH   1   5
BRANCH   3  25
ATOM     25  C40 O6K A 502       9.796   1.792  19.396  0.00  0.00    +0.135 C 
BRANCH  25  26
ATOM     26  C42 O6K A 502       9.250   1.152  18.080  0.00  0.00    +0.034 C 
BRANCH  26  27
ATOM     27  C45 O6K A 502       9.773  -0.250  17.989  0.00  0.00    +0.082 C 
ATOM     28  C47 O6K A 502       9.197  -1.141  16.910  0.00  0.00    +0.241 C 
ATOM     29  O48 O6K A 502       8.004  -1.151  16.621  0.00  0.00    -0.273 OA
ATOM     30  N49 O6K A 502      10.173  -1.911  16.400  0.00  0.00    -0.205 N 
ATOM     31  C51 O6K A 502      11.469  -1.705  17.056  0.00  0.00    +0.116 C 
ATOM     32  C54 O6K A 502      11.278  -0.341  17.708  0.00  0.00    +0.033 C 
ATOM     33  H   O6K A 502      10.033  -2.548  15.662  0.00  0.00    +0.000 HD
ENDBRANCH  26  27
ENDBRANCH  25  26
BRANCH  25  34
ATOM     34  C57 O6K A 502       9.601   3.286  19.630  0.00  0.00    +0.249 C 
BRANCH  34  35
ATOM     35  C35 O6K A 502      10.554   4.044  18.797  0.00  0.00    +0.274 C 
ATOM     36  O41 O6K A 502      10.478   3.883  17.593  0.00  0.00    -0.271 OA
ATOM     37  N36 O6K A 502      11.356   4.866  19.534  0.00  0.00    -0.198 N 
ATOM     38  H   O6K A 502      11.243   4.849  20.512  0.00  0.00    +0.000 HD
BRANCH  37  39
ATOM     39  C13 O6K A 502      12.370   5.770  18.992  0.00  0.00    +0.142 C 
BRANCH  39  40
ATOM     40  C14 O6K A 502      13.730   5.087  18.915  0.00  0.00    -0.001 A 
ATOM     41  C28 O6K A 502      13.937   3.812  19.442  0.00  0.00    -0.003 A 
ATOM     42  C26 O6K A 502      15.198   3.215  19.371  0.00  0.00    -0.000 A 
ATOM     43  C25 O6K A 502      16.267   3.890  18.768  0.00  0.00    -0.000 A 
ATOM     44  C23 O6K A 502      16.070   5.166  18.238  0.00  0.00    -0.000 A 
ATOM     45  C15 O6K A 502      14.805   5.757  18.314  0.00  0.00    -0.003 A 
ENDBRANCH  39  40
ENDBRANCH  37  39
ENDBRANCH  34  35
BRANCH  34  46
ATOM     46  O40 O6K A 502       9.919   3.762  20.992  0.00  0.00    -0.211 OA
ATOM     47  H   O6K A 502      10.861   3.619  21.173  0.00  0.00    +0.000 HD
ENDBRANCH  34  46
ENDBRANCH  25  34
ENDBRANCH   3  25
TORSDOF 15
