MODEL 1
REMARK minimizedAffinity -7.88921595
REMARK minimizedRMSD -1
REMARK  Name = /home/tchapet/Post-Doc/ARTICLES-DOSSIERS-DES-ARTICLES-EN-REDACTION/NOUVELS-AXES-DE-RECHERCHE-A-REGARDER-URGEMMENT/ARTICLES-EN-REDACTIONS/ARTICLE_MVOTO/Paper2_JCIM/docking_rerun/ligands/17574.pdb
REMARK  8 active torsions:
REMARK  status: ('A' for Active; 'I' for Inactive)
REMARK    1  A    between atoms: C1_1  and  C2_2
REMARK    2  A    between atoms: N1_4  and  C3_5
REMARK    3  A    between atoms: N1_4  and  C23_33
REMARK    4  A    between atoms: C6_8  and  N2_11
REMARK    5  A    between atoms: N2_11  and  C9_12
REMARK    6  A    between atoms: C11_14  and  S1_29
REMARK    7  A    between atoms: C12_15  and  N3_28
REMARK    8  A    between atoms: S1_29  and  O6_32
REMARK                            x       y       z     vdW  Elec       q    Type
REMARK                         _______ _______ _______ _____ _____    ______ ____
ROOT
ATOM      1  C9  UNL     1     -21.658 -30.991   7.256  0.00  0.00    +0.045 A 
ATOM      2  C10 UNL     1     -22.922 -30.748   7.789  0.00  0.00    +0.055 A 
ATOM      3  C11 UNL     1     -23.840 -29.932   7.130  0.00  0.00    +0.140 A 
ATOM      4  C12 UNL     1     -23.474 -29.298   5.922  0.00  0.00    +0.064 A 
ATOM      5  C13 UNL     1     -22.169 -29.497   5.388  0.00  0.00    +0.057 A 
ATOM      6  C14 UNL     1     -21.291 -30.420   6.012  0.00  0.00    +0.056 A 
ATOM      7  C15 UNL     1     -20.021 -30.798   5.325  0.00  0.00    +0.196 C 
ATOM      8  O2  UNL     1     -19.336 -31.772   5.741  0.00  0.00    -0.287 OA
ATOM      9  C16 UNL     1     -19.584 -30.082   4.109  0.00  0.00    +0.033 A 
ATOM     10  C17 UNL     1     -18.366 -30.408   3.483  0.00  0.00    +0.012 A 
ATOM     11  C18 UNL     1     -17.958 -29.730   2.333  0.00  0.00    +0.001 A 
ATOM     12  C19 UNL     1     -18.756 -28.720   1.797  0.00  0.00    +0.001 A 
ATOM     13  C20 UNL     1     -19.966 -28.385   2.409  0.00  0.00    +0.012 A 
ATOM     14  C21 UNL     1     -20.391 -29.064   3.567  0.00  0.00    +0.033 A 
ATOM     15  C22 UNL     1     -21.667 -28.706   4.225  0.00  0.00    +0.196 C 
ATOM     16  O3  UNL     1     -22.282 -27.676   3.836  0.00  0.00    -0.287 OA
ENDROOT
BRANCH   4  17
ATOM     17  N3  UNL     1     -24.444 -28.514   5.210  0.00  0.00    -0.356 N 
ATOM     18  H14 UNL     1     -25.194 -27.986   5.707  0.00  0.00    +0.142 HD
ATOM     19  H15 UNL     1     -24.497 -28.545   4.169  0.00  0.00    +0.142 HD
ENDBRANCH   4  17
BRANCH   3  20
ATOM     20  S1  UNL     1     -25.453 -29.737   7.833  0.00  0.00    +0.111 S 
ATOM     21  O4  UNL     1     -25.730 -28.275   8.051  0.00  0.00    -0.142 OA
ATOM     22  O5  UNL     1     -26.481 -30.321   6.905  0.00  0.00    -0.142 OA
BRANCH  20  23
ATOM     23  O6  UNL     1     -25.545 -30.538   9.310  0.00  0.00    -0.250 OA
ATOM     24  H16 UNL     1     -26.466 -30.369   9.636  0.00  0.00    +0.245 HD
ENDBRANCH  20  23
ENDBRANCH   3  20
BRANCH   1  25
ATOM     25  N2  UNL     1     -20.753 -31.807   8.016  0.00  0.00    -0.314 N 
ATOM     26  H8  UNL     1     -20.481 -32.729   7.607  0.00  0.00    +0.152 HD
BRANCH  25  30
ATOM     27  C3  UNL     1     -19.626 -31.018  12.049  0.00  0.00    +0.036 A 
ATOM     28  C4  UNL     1     -19.480 -32.300  11.498  0.00  0.00    +0.025 A 
ATOM     29  C5  UNL     1     -19.857 -32.549  10.176  0.00  0.00    +0.025 A 
ATOM     30  C6  UNL     1     -20.382 -31.521   9.379  0.00  0.00    +0.031 A 
ATOM     31  C7  UNL     1     -20.534 -30.237   9.933  0.00  0.00    +0.025 A 
ATOM     32  C8  UNL     1     -20.155 -29.988  11.255  0.00  0.00    +0.025 A 
BRANCH  27  36
ATOM     33  C1  UNL     1     -17.518 -29.815  15.080  0.00  0.00    +0.109 C 
ATOM     34  C2  UNL     1     -17.927 -30.194  13.688  0.00  0.00    +0.216 C 
ATOM     35  O1  UNL     1     -17.101 -30.018  12.750  0.00  0.00    -0.276 OA
ATOM     36  N1  UNL     1     -19.227 -30.760  13.410  0.00  0.00    -0.275 N 
ATOM     37  C23 UNL     1     -20.098 -31.196  14.507  0.00  0.00    +0.138 C 
ENDBRANCH  27  36
ENDBRANCH  25  30
ENDBRANCH   1  25
TORSDOF 6
ENDMDL
MODEL 2
REMARK minimizedAffinity -7.40839481
REMARK minimizedRMSD -1
REMARK  Name = /home/tchapet/Post-Doc/ARTICLES-DOSSIERS-DES-ARTICLES-EN-REDACTION/NOUVELS-AXES-DE-RECHERCHE-A-REGARDER-URGEMMENT/ARTICLES-EN-REDACTIONS/ARTICLE_MVOTO/Paper2_JCIM/docking_rerun/ligands/17574.pdb
REMARK  8 active torsions:
REMARK  status: ('A' for Active; 'I' for Inactive)
REMARK    1  A    between atoms: C1_1  and  C2_2
REMARK    2  A    between atoms: N1_4  and  C3_5
REMARK    3  A    between atoms: N1_4  and  C23_33
REMARK    4  A    between atoms: C6_8  and  N2_11
REMARK    5  A    between atoms: N2_11  and  C9_12
REMARK    6  A    between atoms: C11_14  and  S1_29
REMARK    7  A    between atoms: C12_15  and  N3_28
REMARK    8  A    between atoms: S1_29  and  O6_32
REMARK                            x       y       z     vdW  Elec       q    Type
REMARK                         _______ _______ _______ _____ _____    ______ ____
ROOT
ATOM      1  C9  UNL     1      -0.778  -9.495   3.565  0.00  0.00    +0.045 A 
ATOM      2  C10 UNL     1      -0.592  -9.396   2.188  0.00  0.00    +0.055 A 
ATOM      3  C11 UNL     1      -0.449 -10.534   1.395  0.00  0.00    +0.140 A 
ATOM      4  C12 UNL     1      -0.445 -11.812   1.996  0.00  0.00    +0.064 A 
ATOM      5  C13 UNL     1      -0.585 -11.928   3.408  0.00  0.00    +0.057 A 
ATOM      6  C14 UNL     1      -0.843 -10.768   4.183  0.00  0.00    +0.056 A 
ATOM      7  C15 UNL     1      -1.218 -10.919   5.620  0.00  0.00    +0.196 C 
ATOM      8  O2  UNL     1      -1.667  -9.935   6.269  0.00  0.00    -0.287 OA
ATOM      9  C16 UNL     1      -1.133 -12.237   6.283  0.00  0.00    +0.033 A 
ATOM     10  C17 UNL     1      -1.445 -12.375   7.648  0.00  0.00    +0.012 A 
ATOM     11  C18 UNL     1      -1.365 -13.622   8.271  0.00  0.00    +0.001 A 
ATOM     12  C19 UNL     1      -0.972 -14.743   7.540  0.00  0.00    +0.001 A 
ATOM     13  C20 UNL     1      -0.658 -14.620   6.185  0.00  0.00    +0.012 A 
ATOM     14  C21 UNL     1      -0.738 -13.368   5.545  0.00  0.00    +0.033 A 
ATOM     15  C22 UNL     1      -0.396 -13.231   4.112  0.00  0.00    +0.196 C 
ATOM     16  O3  UNL     1       0.130 -14.211   3.517  0.00  0.00    -0.287 OA
ENDROOT
BRANCH   4  17
ATOM     17  N3  UNL     1      -0.366 -12.984   1.169  0.00  0.00    -0.356 N 
ATOM     18  H14 UNL     1       0.155 -12.984   0.266  0.00  0.00    +0.142 HD
ATOM     19  H15 UNL     1      -0.927 -13.834   1.393  0.00  0.00    +0.142 HD
ENDBRANCH   4  17
BRANCH   3  20
ATOM     20  S1  UNL     1      -0.296 -10.327  -0.357  0.00  0.00    +0.111 S 
ATOM     21  O4  UNL     1       1.017 -10.897  -0.815  0.00  0.00    -0.142 OA
ATOM     22  O5  UNL     1      -1.430 -11.032  -1.047  0.00  0.00    -0.142 OA
BRANCH  20  23
ATOM     23  O6  UNL     1      -0.354  -8.693  -0.757  0.00  0.00    -0.250 OA
ATOM     24  H16 UNL     1      -0.250  -8.668  -1.743  0.00  0.00    +0.245 HD
ENDBRANCH  20  23
ENDBRANCH   3  20
BRANCH   1  25
ATOM     25  N2  UNL     1      -0.873  -8.277   4.320  0.00  0.00    -0.314 N 
ATOM     26  H8  UNL     1      -1.830  -7.946   4.579  0.00  0.00    +0.152 HD
BRANCH  25  30
ATOM     27  C3  UNL     1       2.391  -5.618   4.978  0.00  0.00    +0.036 A 
ATOM     28  C4  UNL     1       1.173  -5.149   4.465  0.00  0.00    +0.025 A 
ATOM     29  C5  UNL     1       0.111  -6.030   4.248  0.00  0.00    +0.025 A 
ATOM     30  C6  UNL     1       0.244  -7.394   4.545  0.00  0.00    +0.031 A 
ATOM     31  C7  UNL     1       1.468  -7.866   5.055  0.00  0.00    +0.025 A 
ATOM     32  C8  UNL     1       2.530  -6.984   5.273  0.00  0.00    +0.025 A 
BRANCH  27  36
ATOM     33  C1  UNL     1       5.239  -3.066   4.299  0.00  0.00    +0.109 C 
ATOM     34  C2  UNL     1       4.169  -4.097   4.095  0.00  0.00    +0.216 C 
ATOM     35  O1  UNL     1       3.880  -4.438   2.914  0.00  0.00    -0.276 OA
ATOM     36  N1  UNL     1       3.484  -4.706   5.211  0.00  0.00    -0.275 N 
ATOM     37  C23 UNL     1       3.970  -4.507   6.581  0.00  0.00    +0.138 C 
ENDBRANCH  27  36
ENDBRANCH  25  30
ENDBRANCH   1  25
TORSDOF 6
ENDMDL
MODEL 3
REMARK minimizedAffinity -7.30598545
REMARK minimizedRMSD -1
REMARK  Name = /home/tchapet/Post-Doc/ARTICLES-DOSSIERS-DES-ARTICLES-EN-REDACTION/NOUVELS-AXES-DE-RECHERCHE-A-REGARDER-URGEMMENT/ARTICLES-EN-REDACTIONS/ARTICLE_MVOTO/Paper2_JCIM/docking_rerun/ligands/17574.pdb
REMARK  8 active torsions:
REMARK  status: ('A' for Active; 'I' for Inactive)
REMARK    1  A    between atoms: C1_1  and  C2_2
REMARK    2  A    between atoms: N1_4  and  C3_5
REMARK    3  A    between atoms: N1_4  and  C23_33
REMARK    4  A    between atoms: C6_8  and  N2_11
REMARK    5  A    between atoms: N2_11  and  C9_12
REMARK    6  A    between atoms: C11_14  and  S1_29
REMARK    7  A    between atoms: C12_15  and  N3_28
REMARK    8  A    between atoms: S1_29  and  O6_32
REMARK                            x       y       z     vdW  Elec       q    Type
REMARK                         _______ _______ _______ _____ _____    ______ ____
ROOT
ATOM      1  C9  UNL     1       1.025  -6.174   3.074  0.00  0.00    +0.045 A 
ATOM      2  C10 UNL     1       0.428  -7.011   4.015  0.00  0.00    +0.055 A 
ATOM      3  C11 UNL     1       0.859  -7.030   5.340  0.00  0.00    +0.140 A 
ATOM      4  C12 UNL     1       1.950  -6.225   5.735  0.00  0.00    +0.064 A 
ATOM      5  C13 UNL     1       2.603  -5.401   4.775  0.00  0.00    +0.057 A 
ATOM      6  C14 UNL     1       2.079  -5.309   3.460  0.00  0.00    +0.056 A 
ATOM      7  C15 UNL     1       2.620  -4.276   2.529  0.00  0.00    +0.196 C 
ATOM      8  O2  UNL     1       2.030  -4.022   1.443  0.00  0.00    -0.287 OA
ATOM      9  C16 UNL     1       3.816  -3.489   2.896  0.00  0.00    +0.033 A 
ATOM     10  C17 UNL     1       4.354  -2.544   2.002  0.00  0.00    +0.012 A 
ATOM     11  C18 UNL     1       5.483  -1.801   2.352  0.00  0.00    +0.001 A 
ATOM     12  C19 UNL     1       6.087  -1.993   3.594  0.00  0.00    +0.001 A 
ATOM     13  C20 UNL     1       5.564  -2.928   4.490  0.00  0.00    +0.012 A 
ATOM     14  C21 UNL     1       4.424  -3.682   4.149  0.00  0.00    +0.033 A 
ATOM     15  C22 UNL     1       3.874  -4.681   5.090  0.00  0.00    +0.196 C 
ATOM     16  O3  UNL     1       4.534  -4.970   6.124  0.00  0.00    -0.287 OA
ENDROOT
BRANCH   4  17
ATOM     17  N3  UNL     1       2.347  -6.196   7.115  0.00  0.00    -0.356 N 
ATOM     18  H14 UNL     1       2.243  -7.029   7.733  0.00  0.00    +0.142 HD
ATOM     19  H15 UNL     1       2.643  -5.304   7.567  0.00  0.00    +0.142 HD
ENDBRANCH   4  17
BRANCH   3  20
ATOM     20  S1  UNL     1      -0.004  -8.061   6.493  0.00  0.00    +0.111 S 
ATOM     21  O4  UNL     1      -1.200  -8.672   5.818  0.00  0.00    -0.142 OA
ATOM     22  O5  UNL     1       0.915  -9.144   6.984  0.00  0.00    -0.142 OA
BRANCH  20  23
ATOM     23  O6  UNL     1      -0.522  -7.154   7.811  0.00  0.00    -0.250 OA
ATOM     24  H16 UNL     1      -1.000  -7.799   8.393  0.00  0.00    +0.245 HD
ENDBRANCH  20  23
ENDBRANCH   3  20
BRANCH   1  25
ATOM     25  N2  UNL     1       0.555  -6.244   1.719  0.00  0.00    -0.314 N 
ATOM     26  H8  UNL     1       0.270  -5.347   1.263  0.00  0.00    +0.152 HD
BRANCH  25  30
ATOM     27  C3  UNL     1      -0.378  -9.908  -0.245  0.00  0.00    +0.036 A 
ATOM     28  C4  UNL     1      -1.142  -9.460   0.843  0.00  0.00    +0.025 A 
ATOM     29  C5  UNL     1      -0.825  -8.259   1.483  0.00  0.00    +0.025 A 
ATOM     30  C6  UNL     1       0.258  -7.482   1.044  0.00  0.00    +0.031 A 
ATOM     31  C7  UNL     1       1.027  -7.935  -0.043  0.00  0.00    +0.025 A 
ATOM     32  C8  UNL     1       0.709  -9.135  -0.684  0.00  0.00    +0.025 A 
BRANCH  27  36
ATOM     33  C1  UNL     1      -1.950 -12.386  -2.790  0.00  0.00    +0.109 C 
ATOM     34  C2  UNL     1      -1.657 -11.141  -2.006  0.00  0.00    +0.216 C 
ATOM     35  O1  UNL     1      -2.264 -10.079  -2.315  0.00  0.00    -0.276 OA
ATOM     36  N1  UNL     1      -0.713 -11.143  -0.911  0.00  0.00    -0.275 N 
ATOM     37  C23 UNL     1      -0.188 -12.406  -0.384  0.00  0.00    +0.138 C 
ENDBRANCH  27  36
ENDBRANCH  25  30
ENDBRANCH   1  25
TORSDOF 6
ENDMDL
MODEL 4
REMARK minimizedAffinity -7.20875835
REMARK minimizedRMSD -1
REMARK  Name = /home/tchapet/Post-Doc/ARTICLES-DOSSIERS-DES-ARTICLES-EN-REDACTION/NOUVELS-AXES-DE-RECHERCHE-A-REGARDER-URGEMMENT/ARTICLES-EN-REDACTIONS/ARTICLE_MVOTO/Paper2_JCIM/docking_rerun/ligands/17574.pdb
REMARK  8 active torsions:
REMARK  status: ('A' for Active; 'I' for Inactive)
REMARK    1  A    between atoms: C1_1  and  C2_2
REMARK    2  A    between atoms: N1_4  and  C3_5
REMARK    3  A    between atoms: N1_4  and  C23_33
REMARK    4  A    between atoms: C6_8  and  N2_11
REMARK    5  A    between atoms: N2_11  and  C9_12
REMARK    6  A    between atoms: C11_14  and  S1_29
REMARK    7  A    between atoms: C12_15  and  N3_28
REMARK    8  A    between atoms: S1_29  and  O6_32
REMARK                            x       y       z     vdW  Elec       q    Type
REMARK                         _______ _______ _______ _____ _____    ______ ____
ROOT
ATOM      1  C9  UNL     1       0.186  -7.723   2.791  0.00  0.00    +0.045 A 
ATOM      2  C10 UNL     1      -0.454  -8.802   3.398  0.00  0.00    +0.055 A 
ATOM      3  C11 UNL     1      -0.126  -9.201   4.693  0.00  0.00    +0.140 A 
ATOM      4  C12 UNL     1       0.904  -8.533   5.393  0.00  0.00    +0.064 A 
ATOM      5  C13 UNL     1       1.601  -7.460   4.768  0.00  0.00    +0.057 A 
ATOM      6  C14 UNL     1       1.176  -6.997   3.496  0.00  0.00    +0.056 A 
ATOM      7  C15 UNL     1       1.753  -5.733   2.950  0.00  0.00    +0.196 C 
ATOM      8  O2  UNL     1       1.239  -5.181   1.939  0.00  0.00    -0.287 OA
ATOM      9  C16 UNL     1       2.889  -5.073   3.627  0.00  0.00    +0.033 A 
ATOM     10  C17 UNL     1       3.463  -3.904   3.092  0.00  0.00    +0.012 A 
ATOM     11  C18 UNL     1       4.535  -3.284   3.734  0.00  0.00    +0.001 A 
ATOM     12  C19 UNL     1       5.048  -3.821   4.914  0.00  0.00    +0.001 A 
ATOM     13  C20 UNL     1       4.490  -4.981   5.456  0.00  0.00    +0.012 A 
ATOM     14  C21 UNL     1       3.405  -5.615   4.818  0.00  0.00    +0.033 A 
ATOM     15  C22 UNL     1       2.818  -6.850   5.382  0.00  0.00    +0.196 C 
ATOM     16  O3  UNL     1       3.406  -7.420   6.341  0.00  0.00    -0.287 OA
ENDROOT
BRANCH   4  17
ATOM     17  N3  UNL     1       1.192  -8.902   6.750  0.00  0.00    -0.356 N 
ATOM     18  H14 UNL     1       1.068  -9.879   7.092  0.00  0.00    +0.142 HD
ATOM     19  H15 UNL     1       1.422  -8.176   7.463  0.00  0.00    +0.142 HD
ENDBRANCH   4  17
BRANCH   3  20
ATOM     20  S1  UNL     1      -1.039 -10.530   5.423  0.00  0.00    +0.111 S 
ATOM     21  O4  UNL     1      -0.169 -11.753   5.496  0.00  0.00    -0.142 OA
ATOM     22  O5  UNL     1      -1.486 -10.136   6.803  0.00  0.00    -0.142 OA
BRANCH  20  23
ATOM     23  O6  UNL     1      -2.400 -10.880   4.496  0.00  0.00    -0.250 OA
ATOM     24  H16 UNL     1      -2.841 -11.634   4.964  0.00  0.00    +0.245 HD
ENDBRANCH  20  23
ENDBRANCH   3  20
BRANCH   1  25
ATOM     25  N2  UNL     1      -0.176  -7.402   1.439  0.00  0.00    -0.314 N 
ATOM     26  H8  UNL     1      -0.452  -6.414   1.238  0.00  0.00    +0.152 HD
BRANCH  25  30
ATOM     27  C3  UNL     1      -0.848 -10.324  -1.589  0.00  0.00    +0.036 A 
ATOM     28  C4  UNL     1      -1.923  -9.719  -0.921  0.00  0.00    +0.025 A 
ATOM     29  C5  UNL     1      -1.692  -8.765   0.073  0.00  0.00    +0.025 A 
ATOM     30  C6  UNL     1      -0.383  -8.395   0.415  0.00  0.00    +0.031 A 
ATOM     31  C7  UNL     1       0.696  -9.006  -0.251  0.00  0.00    +0.025 A 
ATOM     32  C8  UNL     1       0.464  -9.959  -1.246  0.00  0.00    +0.025 A 
BRANCH  27  36
ATOM     33  C1  UNL     1      -1.349 -11.877  -5.113  0.00  0.00    +0.109 C 
ATOM     34  C2  UNL     1      -1.204 -10.881  -4.001  0.00  0.00    +0.216 C 
ATOM     35  O1  UNL     1      -1.195  -9.653  -4.290  0.00  0.00    -0.276 OA
ATOM     36  N1  UNL     1      -1.089 -11.300  -2.623  0.00  0.00    -0.275 N 
ATOM     37  C23 UNL     1      -1.341 -12.695  -2.245  0.00  0.00    +0.138 C 
ENDBRANCH  27  36
ENDBRANCH  25  30
ENDBRANCH   1  25
TORSDOF 6
ENDMDL
MODEL 5
REMARK minimizedAffinity -7.18001938
REMARK minimizedRMSD -1
REMARK  Name = /home/tchapet/Post-Doc/ARTICLES-DOSSIERS-DES-ARTICLES-EN-REDACTION/NOUVELS-AXES-DE-RECHERCHE-A-REGARDER-URGEMMENT/ARTICLES-EN-REDACTIONS/ARTICLE_MVOTO/Paper2_JCIM/docking_rerun/ligands/17574.pdb
REMARK  8 active torsions:
REMARK  status: ('A' for Active; 'I' for Inactive)
REMARK    1  A    between atoms: C1_1  and  C2_2
REMARK    2  A    between atoms: N1_4  and  C3_5
REMARK    3  A    between atoms: N1_4  and  C23_33
REMARK    4  A    between atoms: C6_8  and  N2_11
REMARK    5  A    between atoms: N2_11  and  C9_12
REMARK    6  A    between atoms: C11_14  and  S1_29
REMARK    7  A    between atoms: C12_15  and  N3_28
REMARK    8  A    between atoms: S1_29  and  O6_32
REMARK                            x       y       z     vdW  Elec       q    Type
REMARK                         _______ _______ _______ _____ _____    ______ ____
ROOT
ATOM      1  C9  UNL     1      -0.808  -9.769   3.631  0.00  0.00    +0.045 A 
ATOM      2  C10 UNL     1      -0.365  -8.460   3.449  0.00  0.00    +0.055 A 
ATOM      3  C11 UNL     1       0.523  -7.867   4.345  0.00  0.00    +0.140 A 
ATOM      4  C12 UNL     1       0.951  -8.581   5.486  0.00  0.00    +0.064 A 
ATOM      5  C13 UNL     1       0.469  -9.902   5.713  0.00  0.00    +0.057 A 
ATOM      6  C14 UNL     1      -0.342 -10.529   4.732  0.00  0.00    +0.056 A 
ATOM      7  C15 UNL     1      -0.652 -11.983   4.862  0.00  0.00    +0.196 C 
ATOM      8  O2  UNL     1      -1.175 -12.613   3.903  0.00  0.00    -0.287 OA
ATOM      9  C16 UNL     1      -0.287 -12.721   6.090  0.00  0.00    +0.033 A 
ATOM     10  C17 UNL     1      -0.615 -14.082   6.233  0.00  0.00    +0.012 A 
ATOM     11  C18 UNL     1      -0.267 -14.776   7.393  0.00  0.00    +0.001 A 
ATOM     12  C19 UNL     1       0.407 -14.121   8.423  0.00  0.00    +0.001 A 
ATOM     13  C20 UNL     1       0.738 -12.770   8.294  0.00  0.00    +0.012 A 
ATOM     14  C21 UNL     1       0.395 -12.060   7.127  0.00  0.00    +0.033 A 
ATOM     15  C22 UNL     1       0.734 -10.626   6.992  0.00  0.00    +0.196 C 
ATOM     16  O3  UNL     1       1.177 -10.009   7.998  0.00  0.00    -0.287 OA
ENDROOT
BRANCH   4  17
ATOM     17  N3  UNL     1       1.917  -7.992   6.369  0.00  0.00    -0.356 N 
ATOM     18  H14 UNL     1       1.964  -6.962   6.523  0.00  0.00    +0.142 HD
ATOM     19  H15 UNL     1       2.676  -8.570   6.792  0.00  0.00    +0.142 HD
ENDBRANCH   4  17
BRANCH   3  20
ATOM     20  S1  UNL     1       1.100  -6.229   4.000  0.00  0.00    +0.111 S 
ATOM     21  O4  UNL     1       2.591  -6.255   3.808  0.00  0.00    -0.142 OA
ATOM     22  O5  UNL     1       0.433  -5.711   2.757  0.00  0.00    -0.142 OA
BRANCH  20  23
ATOM     23  O6  UNL     1       0.730  -5.200   5.278  0.00  0.00    -0.250 OA
ATOM     24  H16 UNL     1       1.095  -4.318   5.011  0.00  0.00    +0.245 HD
ENDBRANCH  20  23
ENDBRANCH   3  20
BRANCH   1  25
ATOM     25  N2  UNL     1      -1.756 -10.294   2.689  0.00  0.00    -0.314 N 
ATOM     26  H8  UNL     1      -2.596 -10.781   3.076  0.00  0.00    +0.152 HD
BRANCH  25  30
ATOM     27  C3  UNL     1      -0.980 -10.576  -1.491  0.00  0.00    +0.036 A 
ATOM     28  C4  UNL     1      -0.189 -11.270  -0.564  0.00  0.00    +0.025 A 
ATOM     29  C5  UNL     1      -0.449 -11.167   0.805  0.00  0.00    +0.025 A 
ATOM     30  C6  UNL     1      -1.507 -10.373   1.272  0.00  0.00    +0.031 A 
ATOM     31  C7  UNL     1      -2.297  -9.672   0.342  0.00  0.00    +0.025 A 
ATOM     32  C8  UNL     1      -2.038  -9.777  -1.027  0.00  0.00    +0.025 A 
BRANCH  27  36
ATOM     33  C1  UNL     1      -1.241 -11.768  -5.178  0.00  0.00    +0.109 C 
ATOM     34  C2  UNL     1      -1.409 -11.688  -3.690  0.00  0.00    +0.216 C 
ATOM     35  O1  UNL     1      -2.167 -12.523  -3.124  0.00  0.00    -0.276 OA
ATOM     36  N1  UNL     1      -0.718 -10.691  -2.904  0.00  0.00    -0.275 N 
ATOM     37  C23 UNL     1       0.345  -9.877  -3.503  0.00  0.00    +0.138 C 
ENDBRANCH  27  36
ENDBRANCH  25  30
ENDBRANCH   1  25
TORSDOF 6
ENDMDL
MODEL 6
REMARK minimizedAffinity -6.95750332
REMARK minimizedRMSD -1
REMARK  Name = /home/tchapet/Post-Doc/ARTICLES-DOSSIERS-DES-ARTICLES-EN-REDACTION/NOUVELS-AXES-DE-RECHERCHE-A-REGARDER-URGEMMENT/ARTICLES-EN-REDACTIONS/ARTICLE_MVOTO/Paper2_JCIM/docking_rerun/ligands/17574.pdb
REMARK  8 active torsions:
REMARK  status: ('A' for Active; 'I' for Inactive)
REMARK    1  A    between atoms: C1_1  and  C2_2
REMARK    2  A    between atoms: N1_4  and  C3_5
REMARK    3  A    between atoms: N1_4  and  C23_33
REMARK    4  A    between atoms: C6_8  and  N2_11
REMARK    5  A    between atoms: N2_11  and  C9_12
REMARK    6  A    between atoms: C11_14  and  S1_29
REMARK    7  A    between atoms: C12_15  and  N3_28
REMARK    8  A    between atoms: S1_29  and  O6_32
REMARK                            x       y       z     vdW  Elec       q    Type
REMARK                         _______ _______ _______ _____ _____    ______ ____
ROOT
ATOM      1  C9  UNL     1       0.374  -7.974   4.124  0.00  0.00    +0.045 A 
ATOM      2  C10 UNL     1      -0.406  -8.666   3.199  0.00  0.00    +0.055 A 
ATOM      3  C11 UNL     1      -0.333  -8.381   1.836  0.00  0.00    +0.140 A 
ATOM      4  C12 UNL     1       0.509  -7.343   1.381  0.00  0.00    +0.064 A 
ATOM      5  C13 UNL     1       1.275  -6.593   2.318  0.00  0.00    +0.057 A 
ATOM      6  C14 UNL     1       1.274  -6.973   3.685  0.00  0.00    +0.056 A 
ATOM      7  C15 UNL     1       2.250  -6.338   4.619  0.00  0.00    +0.196 C 
ATOM      8  O2  UNL     1       2.425  -6.809   5.776  0.00  0.00    -0.287 OA
ATOM      9  C16 UNL     1       3.074  -5.193   4.179  0.00  0.00    +0.033 A 
ATOM     10  C17 UNL     1       3.965  -4.565   5.070  0.00  0.00    +0.012 A 
ATOM     11  C18 UNL     1       4.742  -3.484   4.650  0.00  0.00    +0.001 A 
ATOM     12  C19 UNL     1       4.639  -3.017   3.341  0.00  0.00    +0.001 A 
ATOM     13  C20 UNL     1       3.758  -3.630   2.446  0.00  0.00    +0.012 A 
ATOM     14  C21 UNL     1       2.971  -4.723   2.857  0.00  0.00    +0.033 A 
ATOM     15  C22 UNL     1       2.029  -5.368   1.916  0.00  0.00    +0.196 C 
ATOM     16  O3  UNL     1       1.816  -4.821   0.800  0.00  0.00    -0.287 OA
ENDROOT
BRANCH   4  17
ATOM     17  N3  UNL     1       0.633  -7.097  -0.029  0.00  0.00    -0.356 N 
ATOM     18  H14 UNL     1      -0.159  -7.264  -0.686  0.00  0.00    +0.142 HD
ATOM     19  H15 UNL     1       1.556  -6.856  -0.450  0.00  0.00    +0.142 HD
ENDBRANCH   4  17
BRANCH   3  20
ATOM     20  S1  UNL     1      -1.297  -9.359   0.718  0.00  0.00    +0.111 S 
ATOM     21  O4  UNL     1      -2.066  -8.452  -0.202  0.00  0.00    -0.142 OA
ATOM     22  O5  UNL     1      -0.388 -10.249  -0.082  0.00  0.00    -0.142 OA
BRANCH  20  23
ATOM     23  O6  UNL     1      -2.381 -10.322   1.572  0.00  0.00    -0.250 OA
ATOM     24  H16 UNL     1      -2.881 -10.820   0.877  0.00  0.00    +0.245 HD
ENDBRANCH  20  23
ENDBRANCH   3  20
BRANCH   1  25
ATOM     25  N2  UNL     1       0.210  -8.295   5.514  0.00  0.00    -0.314 N 
ATOM     26  H8  UNL     1       0.396  -7.535   6.207  0.00  0.00    +0.152 HD
BRANCH  25  30
ATOM     27  C3  UNL     1      -0.415 -12.248   6.976  0.00  0.00    +0.036 A 
ATOM     28  C4  UNL     1      -1.288 -11.206   7.322  0.00  0.00    +0.025 A 
ATOM     29  C5  UNL     1      -1.072  -9.912   6.842  0.00  0.00    +0.025 A 
ATOM     30  C6  UNL     1       0.018  -9.637   6.002  0.00  0.00    +0.031 A 
ATOM     31  C7  UNL     1       0.897 -10.681   5.659  0.00  0.00    +0.025 A 
ATOM     32  C8  UNL     1       0.679 -11.975   6.139  0.00  0.00    +0.025 A 
BRANCH  27  36
ATOM     33  C1  UNL     1      -0.231 -15.405   9.231  0.00  0.00    +0.109 C 
ATOM     34  C2  UNL     1       0.060 -14.061   8.633  0.00  0.00    +0.216 C 
ATOM     35  O1  UNL     1       0.950 -13.344   9.168  0.00  0.00    -0.276 OA
ATOM     36  N1  UNL     1      -0.645 -13.585   7.465  0.00  0.00    -0.275 N 
ATOM     37  C23 UNL     1      -1.499 -14.492   6.691  0.00  0.00    +0.138 C 
ENDBRANCH  27  36
ENDBRANCH  25  30
ENDBRANCH   1  25
TORSDOF 6
ENDMDL
MODEL 7
REMARK minimizedAffinity -6.95604849
REMARK minimizedRMSD -1
REMARK  Name = /home/tchapet/Post-Doc/ARTICLES-DOSSIERS-DES-ARTICLES-EN-REDACTION/NOUVELS-AXES-DE-RECHERCHE-A-REGARDER-URGEMMENT/ARTICLES-EN-REDACTIONS/ARTICLE_MVOTO/Paper2_JCIM/docking_rerun/ligands/17574.pdb
REMARK  8 active torsions:
REMARK  status: ('A' for Active; 'I' for Inactive)
REMARK    1  A    between atoms: C1_1  and  C2_2
REMARK    2  A    between atoms: N1_4  and  C3_5
REMARK    3  A    between atoms: N1_4  and  C23_33
REMARK    4  A    between atoms: C6_8  and  N2_11
REMARK    5  A    between atoms: N2_11  and  C9_12
REMARK    6  A    between atoms: C11_14  and  S1_29
REMARK    7  A    between atoms: C12_15  and  N3_28
REMARK    8  A    between atoms: S1_29  and  O6_32
REMARK                            x       y       z     vdW  Elec       q    Type
REMARK                         _______ _______ _______ _____ _____    ______ ____
ROOT
ATOM      1  C9  UNL     1     -23.369 -30.041   2.934  0.00  0.00    +0.045 A 
ATOM      2  C10 UNL     1     -22.257 -29.219   3.107  0.00  0.00    +0.055 A 
ATOM      3  C11 UNL     1     -20.990 -29.621   2.689  0.00  0.00    +0.140 A 
ATOM      4  C12 UNL     1     -20.811 -30.902   2.123  0.00  0.00    +0.064 A 
ATOM      5  C13 UNL     1     -21.928 -31.774   1.985  0.00  0.00    +0.057 A 
ATOM      6  C14 UNL     1     -23.227 -31.304   2.309  0.00  0.00    +0.056 A 
ATOM      7  C15 UNL     1     -24.415 -32.132   1.947  0.00  0.00    +0.196 C 
ATOM      8  O2  UNL     1     -25.577 -31.648   2.017  0.00  0.00    -0.287 OA
ATOM      9  C16 UNL     1     -24.242 -33.508   1.436  0.00  0.00    +0.033 A 
ATOM     10  C17 UNL     1     -25.361 -34.307   1.133  0.00  0.00    +0.012 A 
ATOM     11  C18 UNL     1     -25.193 -35.606   0.650  0.00  0.00    +0.001 A 
ATOM     12  C19 UNL     1     -23.911 -36.122   0.465  0.00  0.00    +0.001 A 
ATOM     13  C20 UNL     1     -22.792 -35.341   0.762  0.00  0.00    +0.012 A 
ATOM     14  C21 UNL     1     -22.948 -34.028   1.248  0.00  0.00    +0.033 A 
ATOM     15  C22 UNL     1     -21.766 -33.201   1.574  0.00  0.00    +0.196 C 
ATOM     16  O3  UNL     1     -20.627 -33.743   1.575  0.00  0.00    -0.287 OA
ENDROOT
BRANCH   4  17
ATOM     17  N3  UNL     1     -19.517 -31.287   1.632  0.00  0.00    -0.356 N 
ATOM     18  H14 UNL     1     -18.638 -30.936   2.070  0.00  0.00    +0.142 HD
ATOM     19  H15 UNL     1     -19.422 -31.836   0.750  0.00  0.00    +0.142 HD
ENDBRANCH   4  17
BRANCH   3  20
ATOM     20  S1  UNL     1     -19.642 -28.486   2.871  0.00  0.00    +0.111 S 
ATOM     21  O4  UNL     1     -20.081 -27.321   3.714  0.00  0.00    -0.142 OA
ATOM     22  O5  UNL     1     -18.483 -29.183   3.525  0.00  0.00    -0.142 OA
BRANCH  20  23
ATOM     23  O6  UNL     1     -19.151 -27.920   1.365  0.00  0.00    -0.250 OA
ATOM     24  H16 UNL     1     -18.411 -27.289   1.558  0.00  0.00    +0.245 HD
ENDBRANCH  20  23
ENDBRANCH   3  20
BRANCH   1  25
ATOM     25  N2  UNL     1     -24.633 -29.574   3.430  0.00  0.00    -0.314 N 
ATOM     26  H8  UNL     1     -25.181 -28.931   2.815  0.00  0.00    +0.152 HD
BRANCH  25  30
ATOM     27  C3  UNL     1     -25.972 -30.200   7.426  0.00  0.00    +0.036 A 
ATOM     28  C4  UNL     1     -26.589 -30.854   6.350  0.00  0.00    +0.025 A 
ATOM     29  C5  UNL     1     -26.146 -30.639   5.043  0.00  0.00    +0.025 A 
ATOM     30  C6  UNL     1     -25.074 -29.770   4.788  0.00  0.00    +0.031 A 
ATOM     31  C7  UNL     1     -24.459 -29.109   5.868  0.00  0.00    +0.025 A 
ATOM     32  C8  UNL     1     -24.902 -29.326   7.175  0.00  0.00    +0.025 A 
BRANCH  27  36
ATOM     33  C1  UNL     1     -27.984 -29.832  10.728  0.00  0.00    +0.109 C 
ATOM     34  C2  UNL     1     -27.413 -29.560   9.368  0.00  0.00    +0.216 C 
ATOM     35  O1  UNL     1     -27.809 -28.538   8.743  0.00  0.00    -0.276 OA
ATOM     36  N1  UNL     1     -26.424 -30.432   8.776  0.00  0.00    -0.275 N 
ATOM     37  C23 UNL     1     -25.777 -31.476   9.578  0.00  0.00    +0.138 C 
ENDBRANCH  27  36
ENDBRANCH  25  30
ENDBRANCH   1  25
TORSDOF 6
ENDMDL
MODEL 8
REMARK minimizedAffinity -6.91968393
REMARK minimizedRMSD -1
REMARK  Name = /home/tchapet/Post-Doc/ARTICLES-DOSSIERS-DES-ARTICLES-EN-REDACTION/NOUVELS-AXES-DE-RECHERCHE-A-REGARDER-URGEMMENT/ARTICLES-EN-REDACTIONS/ARTICLE_MVOTO/Paper2_JCIM/docking_rerun/ligands/17574.pdb
REMARK  8 active torsions:
REMARK  status: ('A' for Active; 'I' for Inactive)
REMARK    1  A    between atoms: C1_1  and  C2_2
REMARK    2  A    between atoms: N1_4  and  C3_5
REMARK    3  A    between atoms: N1_4  and  C23_33
REMARK    4  A    between atoms: C6_8  and  N2_11
REMARK    5  A    between atoms: N2_11  and  C9_12
REMARK    6  A    between atoms: C11_14  and  S1_29
REMARK    7  A    between atoms: C12_15  and  N3_28
REMARK    8  A    between atoms: S1_29  and  O6_32
REMARK                            x       y       z     vdW  Elec       q    Type
REMARK                         _______ _______ _______ _____ _____    ______ ____
ROOT
ATOM      1  C9  UNL     1       3.069  -4.526   3.151  0.00  0.00    +0.045 A 
ATOM      2  C10 UNL     1       2.226  -4.980   2.139  0.00  0.00    +0.055 A 
ATOM      3  C11 UNL     1       2.175  -4.342   0.901  0.00  0.00    +0.140 A 
ATOM      4  C12 UNL     1       2.954  -3.185   0.675  0.00  0.00    +0.064 A 
ATOM      5  C13 UNL     1       3.784  -2.679   1.716  0.00  0.00    +0.057 A 
ATOM      6  C14 UNL     1       3.909  -3.407   2.927  0.00  0.00    +0.056 A 
ATOM      7  C15 UNL     1       4.949  -3.002   3.918  0.00  0.00    +0.196 C 
ATOM      8  O2  UNL     1       5.233  -3.755   4.889  0.00  0.00    -0.287 OA
ATOM      9  C16 UNL     1       5.709  -1.748   3.737  0.00  0.00    +0.033 A 
ATOM     10  C17 UNL     1       6.661  -1.342   4.691  0.00  0.00    +0.012 A 
ATOM     11  C18 UNL     1       7.378  -0.157   4.516  0.00  0.00    +0.001 A 
ATOM     12  C19 UNL     1       7.153   0.636   3.391  0.00  0.00    +0.001 A 
ATOM     13  C20 UNL     1       6.210   0.246   2.437  0.00  0.00    +0.012 A 
ATOM     14  C21 UNL     1       5.483  -0.949   2.601  0.00  0.00    +0.033 A 
ATOM     15  C22 UNL     1       4.476  -1.361   1.598  0.00  0.00    +0.196 C 
ATOM     16  O3  UNL     1       4.157  -0.548   0.689  0.00  0.00    -0.287 OA
ENDROOT
BRANCH   4  17
ATOM     17  N3  UNL     1       2.951  -2.571  -0.623  0.00  0.00    -0.356 N 
ATOM     18  H14 UNL     1       2.109  -2.591  -1.237  0.00  0.00    +0.142 HD
ATOM     19  H15 UNL     1       3.830  -2.188  -1.035  0.00  0.00    +0.142 HD
ENDBRANCH   4  17
BRANCH   3  20
ATOM     20  S1  UNL     1       1.138  -5.028  -0.360  0.00  0.00    +0.111 S 
ATOM     21  O4  UNL     1       1.985  -5.449  -1.529  0.00  0.00    -0.142 OA
ATOM     22  O5  UNL     1       0.397  -6.214   0.189  0.00  0.00    -0.142 OA
BRANCH  20  23
ATOM     23  O6  UNL     1       0.018  -3.884  -0.878  0.00  0.00    -0.250 OA
ATOM     24  H16 UNL     1      -0.507  -4.342  -1.583  0.00  0.00    +0.245 HD
ENDBRANCH  20  23
ENDBRANCH   3  20
BRANCH   1  25
ATOM     25  N2  UNL     1       3.033  -5.210   4.413  0.00  0.00    -0.314 N 
ATOM     26  H8  UNL     1       3.813  -5.024   5.082  0.00  0.00    +0.152 HD
BRANCH  25  30
ATOM     27  C3  UNL     1       0.360  -8.410   5.290  0.00  0.00    +0.036 A 
ATOM     28  C4  UNL     1       1.675  -8.664   4.874  0.00  0.00    +0.025 A 
ATOM     29  C5  UNL     1       2.542  -7.608   4.584  0.00  0.00    +0.025 A 
ATOM     30  C6  UNL     1       2.113  -6.278   4.710  0.00  0.00    +0.031 A 
ATOM     31  C7  UNL     1       0.791  -6.024   5.123  0.00  0.00    +0.025 A 
ATOM     32  C8  UNL     1      -0.075  -7.080   5.414  0.00  0.00    +0.025 A 
BRANCH  27  36
ATOM     33  C1  UNL     1      -1.657 -11.023   7.337  0.00  0.00    +0.109 C 
ATOM     34  C2  UNL     1      -0.665  -9.963   6.962  0.00  0.00    +0.216 C 
ATOM     35  O1  UNL     1       0.071  -9.481   7.867  0.00  0.00    -0.276 OA
ATOM     36  N1  UNL     1      -0.531  -9.501   5.599  0.00  0.00    -0.275 N 
ATOM     37  C23 UNL     1      -1.195 -10.215   4.503  0.00  0.00    +0.138 C 
ENDBRANCH  27  36
ENDBRANCH  25  30
ENDBRANCH   1  25
TORSDOF 6
ENDMDL
MODEL 9
REMARK minimizedAffinity -6.89833927
REMARK minimizedRMSD -1
REMARK  Name = /home/tchapet/Post-Doc/ARTICLES-DOSSIERS-DES-ARTICLES-EN-REDACTION/NOUVELS-AXES-DE-RECHERCHE-A-REGARDER-URGEMMENT/ARTICLES-EN-REDACTIONS/ARTICLE_MVOTO/Paper2_JCIM/docking_rerun/ligands/17574.pdb
REMARK  8 active torsions:
REMARK  status: ('A' for Active; 'I' for Inactive)
REMARK    1  A    between atoms: C1_1  and  C2_2
REMARK    2  A    between atoms: N1_4  and  C3_5
REMARK    3  A    between atoms: N1_4  and  C23_33
REMARK    4  A    between atoms: C6_8  and  N2_11
REMARK    5  A    between atoms: N2_11  and  C9_12
REMARK    6  A    between atoms: C11_14  and  S1_29
REMARK    7  A    between atoms: C12_15  and  N3_28
REMARK    8  A    between atoms: S1_29  and  O6_32
REMARK                            x       y       z     vdW  Elec       q    Type
REMARK                         _______ _______ _______ _____ _____    ______ ____
ROOT
ATOM      1  C9  UNL     1     -18.947  -1.205   8.236  0.00  0.00    +0.045 A 
ATOM      2  C10 UNL     1     -18.540  -0.962   9.547  0.00  0.00    +0.055 A 
ATOM      3  C11 UNL     1     -19.333  -1.338  10.630  0.00  0.00    +0.140 A 
ATOM      4  C12 UNL     1     -20.593  -1.934  10.404  0.00  0.00    +0.064 A 
ATOM      5  C13 UNL     1     -21.045  -2.144   9.070  0.00  0.00    +0.057 A 
ATOM      6  C14 UNL     1     -20.177  -1.860   7.985  0.00  0.00    +0.056 A 
ATOM      7  C15 UNL     1     -20.561  -2.296   6.609  0.00  0.00    +0.196 C 
ATOM      8  O2  UNL     1     -19.721  -2.259   5.670  0.00  0.00    -0.287 OA
ATOM      9  C16 UNL     1     -21.910  -2.839   6.345  0.00  0.00    +0.033 A 
ATOM     10  C17 UNL     1     -22.290  -3.211   5.041  0.00  0.00    +0.012 A 
ATOM     11  C18 UNL     1     -23.564  -3.725   4.795  0.00  0.00    +0.001 A 
ATOM     12  C19 UNL     1     -24.472  -3.873   5.843  0.00  0.00    +0.001 A 
ATOM     13  C20 UNL     1     -24.109  -3.506   7.140  0.00  0.00    +0.012 A 
ATOM     14  C21 UNL     1     -22.825  -2.989   7.402  0.00  0.00    +0.033 A 
ATOM     15  C22 UNL     1     -22.440  -2.589   8.773  0.00  0.00    +0.196 C 
ATOM     16  O3  UNL     1     -23.327  -2.558   9.669  0.00  0.00    -0.287 OA
ENDROOT
BRANCH   4  17
ATOM     17  N3  UNL     1     -21.377  -2.382  11.521  0.00  0.00    -0.356 N 
ATOM     18  H14 UNL     1     -21.342  -1.898  12.444  0.00  0.00    +0.142 HD
ATOM     19  H15 UNL     1     -21.913  -3.275  11.473  0.00  0.00    +0.142 HD
ENDBRANCH   4  17
BRANCH   3  20
ATOM     20  S1  UNL     1     -18.710  -1.067  12.265  0.00  0.00    +0.111 S 
ATOM     21  O4  UNL     1     -19.713  -0.277  13.057  0.00  0.00    -0.142 OA
ATOM     22  O5  UNL     1     -18.457  -2.390  12.933  0.00  0.00    -0.142 OA
BRANCH  20  23
ATOM     23  O6  UNL     1     -17.263  -0.210  12.202  0.00  0.00    -0.250 OA
ATOM     24  H16 UNL     1     -16.994  -0.093  13.149  0.00  0.00    +0.245 HD
ENDBRANCH  20  23
ENDBRANCH   3  20
BRANCH   1  25
ATOM     25  N2  UNL     1     -18.096  -0.748   7.173  0.00  0.00    -0.314 N 
ATOM     26  H8  UNL     1     -17.754  -1.463   6.492  0.00  0.00    +0.152 HD
BRANCH  25  30
ATOM     27  C3  UNL     1     -16.357   3.139   7.023  0.00  0.00    +0.036 A 
ATOM     28  C4  UNL     1     -15.554   1.996   7.150  0.00  0.00    +0.025 A 
ATOM     29  C5  UNL     1     -16.134   0.726   7.203  0.00  0.00    +0.025 A 
ATOM     30  C6  UNL     1     -17.527   0.575   7.125  0.00  0.00    +0.031 A 
ATOM     31  C7  UNL     1     -18.333   1.723   7.004  0.00  0.00    +0.025 A 
ATOM     32  C8  UNL     1     -17.752   2.992   6.949  0.00  0.00    +0.025 A 
BRANCH  27  36
ATOM     33  C1  UNL     1     -14.670   6.453   8.142  0.00  0.00    +0.109 C 
ATOM     34  C2  UNL     1     -15.391   5.139   8.173  0.00  0.00    +0.216 C 
ATOM     35  O1  UNL     1     -15.688   4.642   9.295  0.00  0.00    -0.276 OA
ATOM     36  N1  UNL     1     -15.756   4.448   6.958  0.00  0.00    -0.275 N 
ATOM     37  C23 UNL     1     -15.641   5.119   5.658  0.00  0.00    +0.138 C 
ENDBRANCH  27  36
ENDBRANCH  25  30
ENDBRANCH   1  25
TORSDOF 6
ENDMDL
