MODEL 1
REMARK minimizedAffinity -4.43698883
REMARK minimizedRMSD -1
REMARK  Name = /home/tchapet/Post-Doc/ARTICLES-DOSSIERS-DES-ARTICLES-EN-REDACTION/NOUVELS-AXES-DE-RECHERCHE-A-REGARDER-URGEMMENT/ARTICLES-EN-REDACTIONS/ARTICLE_MVOTO/Paper2_Sensors_ActuatorsB/docking_rerun/ligands/17851.pdb
REMARK  7 active torsions:
REMARK  status: ('A' for Active; 'I' for Inactive)
REMARK    1  A    between atoms: C1_1  and  C2_2
REMARK    2  A    between atoms: C2_2  and  N1_3
REMARK    3  A    between atoms: N1_3  and  C3_4
REMARK    4  A    between atoms: N3_7  and  N4_8
REMARK    5  A    between atoms: N8_13  and  C6_14
REMARK    6  A    between atoms: C6_14  and  C7_15
REMARK    7  A    between atoms: C6_14  and  C8_16
REMARK                            x       y       z     vdW  Elec       q    Type
REMARK                         _______ _______ _______ _____ _____    ______ ____
ROOT
ATOM      1  C3  UNL     1       6.552  14.109  18.372  0.00  0.00    +0.241 A 
ATOM      2  N2  UNL     1       6.038  14.019  19.626  0.00  0.00    -0.178 NA
ATOM      3  C4  UNL     1       4.903  13.308  19.850  0.00  0.00    +0.252 A 
ATOM      4  N3  UNL     1       4.359  13.211  21.167  0.00  0.00    -0.126 N 
ATOM      5  N6  UNL     1       4.285  12.685  18.816  0.00  0.00    -0.179 NA
ATOM      6  C5  UNL     1       4.793  12.769  17.558  0.00  0.00    +0.221 A 
ATOM      7  N7  UNL     1       5.927  13.483  17.343  0.00  0.00    -0.180 NA
ATOM      8  N8  UNL     1       4.149  12.115  16.452  0.00  0.00    -0.311 N 
ATOM      9  H6  UNL     1       3.486  12.660  21.330  0.00  0.00    +0.193 HD
ATOM     10  H7  UNL     1       4.589  12.219  15.511  0.00  0.00    +0.149 HD
ENDROOT
BRANCH   8  11
ATOM     11  C6  UNL     1       2.921  11.313  16.538  0.00  0.00    +0.067 C 
ATOM     12  C7  UNL     1       1.676  12.168  16.276  0.00  0.00    +0.027 C 
ATOM     13  C8  UNL     1       2.983  10.095  15.610  0.00  0.00    +0.027 C 
ENDBRANCH   8  11
BRANCH   4  14
ATOM     14  N4  UNL     1       4.961  13.825  22.216  0.00  0.00    -0.126 NA
ATOM     15  N5  UNL     1       5.459  14.333  23.082  0.00  0.00    -0.017 NA
ENDBRANCH   4  14
BRANCH   1  16
ATOM     16  N1  UNL     1       7.745  14.854  18.124  0.00  0.00    -0.216 NA
BRANCH  16  18
ATOM     17  C1  UNL     1       8.704  15.843  16.115  0.00  0.00    +0.026 C 
ATOM     18  C2  UNL     1       8.615  14.598  16.984  0.00  0.00    +0.128 C 
ENDBRANCH  16  18
ENDBRANCH   1  16
TORSDOF 4
ENDMDL
MODEL 2
REMARK minimizedAffinity -4.37549353
REMARK minimizedRMSD -1
REMARK  Name = /home/tchapet/Post-Doc/ARTICLES-DOSSIERS-DES-ARTICLES-EN-REDACTION/NOUVELS-AXES-DE-RECHERCHE-A-REGARDER-URGEMMENT/ARTICLES-EN-REDACTIONS/ARTICLE_MVOTO/Paper2_Sensors_ActuatorsB/docking_rerun/ligands/17851.pdb
REMARK  7 active torsions:
REMARK  status: ('A' for Active; 'I' for Inactive)
REMARK    1  A    between atoms: C1_1  and  C2_2
REMARK    2  A    between atoms: C2_2  and  N1_3
REMARK    3  A    between atoms: N1_3  and  C3_4
REMARK    4  A    between atoms: N3_7  and  N4_8
REMARK    5  A    between atoms: N8_13  and  C6_14
REMARK    6  A    between atoms: C6_14  and  C7_15
REMARK    7  A    between atoms: C6_14  and  C8_16
REMARK                            x       y       z     vdW  Elec       q    Type
REMARK                         _______ _______ _______ _____ _____    ______ ____
ROOT
ATOM      1  C3  UNL     1       5.682  12.529  18.257  0.00  0.00    +0.241 A 
ATOM      2  N2  UNL     1       6.569  13.537  18.049  0.00  0.00    -0.178 NA
ATOM      3  C4  UNL     1       6.698  14.533  18.964  0.00  0.00    +0.252 A 
ATOM      4  N3  UNL     1       7.628  15.595  18.750  0.00  0.00    -0.126 N 
ATOM      5  N6  UNL     1       5.937  14.516  20.087  0.00  0.00    -0.179 NA
ATOM      6  C5  UNL     1       5.048  13.511  20.303  0.00  0.00    +0.221 A 
ATOM      7  N7  UNL     1       4.925  12.520  19.383  0.00  0.00    -0.180 NA
ATOM      8  N8  UNL     1       4.236  13.481  21.488  0.00  0.00    -0.311 N 
ATOM      9  H6  UNL     1       7.721  16.356  19.459  0.00  0.00    +0.193 HD
ATOM     10  H7  UNL     1       3.572  12.682  21.594  0.00  0.00    +0.149 HD
ENDROOT
BRANCH   8  11
ATOM     11  C6  UNL     1       4.263  14.482  22.562  0.00  0.00    +0.067 C 
ATOM     12  C7  UNL     1       5.639  14.545  23.234  0.00  0.00    +0.027 C 
ATOM     13  C8  UNL     1       3.811  15.857  22.057  0.00  0.00    +0.027 C 
ENDBRANCH   8  11
BRANCH   4  14
ATOM     14  N4  UNL     1       8.399  15.631  17.634  0.00  0.00    -0.126 NA
ATOM     15  N5  UNL     1       9.035  15.660  16.712  0.00  0.00    -0.017 NA
ENDBRANCH   4  14
BRANCH   1  16
ATOM     16  N1  UNL     1       5.538  11.477  17.302  0.00  0.00    -0.216 NA
BRANCH  16  18
ATOM     17  C1  UNL     1       4.081  12.440  15.603  0.00  0.00    +0.026 C 
ATOM     18  C2  UNL     1       4.314  11.264  16.539  0.00  0.00    +0.128 C 
ENDBRANCH  16  18
ENDBRANCH   1  16
TORSDOF 4
ENDMDL
MODEL 3
REMARK minimizedAffinity -4.22620916
REMARK minimizedRMSD -1
REMARK  Name = /home/tchapet/Post-Doc/ARTICLES-DOSSIERS-DES-ARTICLES-EN-REDACTION/NOUVELS-AXES-DE-RECHERCHE-A-REGARDER-URGEMMENT/ARTICLES-EN-REDACTIONS/ARTICLE_MVOTO/Paper2_Sensors_ActuatorsB/docking_rerun/ligands/17851.pdb
REMARK  7 active torsions:
REMARK  status: ('A' for Active; 'I' for Inactive)
REMARK    1  A    between atoms: C1_1  and  C2_2
REMARK    2  A    between atoms: C2_2  and  N1_3
REMARK    3  A    between atoms: N1_3  and  C3_4
REMARK    4  A    between atoms: N3_7  and  N4_8
REMARK    5  A    between atoms: N8_13  and  C6_14
REMARK    6  A    between atoms: C6_14  and  C7_15
REMARK    7  A    between atoms: C6_14  and  C8_16
REMARK                            x       y       z     vdW  Elec       q    Type
REMARK                         _______ _______ _______ _____ _____    ______ ____
ROOT
ATOM      1  C3  UNL     1       6.716  13.716  17.452  0.00  0.00    +0.241 A 
ATOM      2  N2  UNL     1       5.667  12.921  17.116  0.00  0.00    -0.178 NA
ATOM      3  C4  UNL     1       4.665  12.700  18.006  0.00  0.00    +0.252 A 
ATOM      4  N3  UNL     1       3.560  11.865  17.658  0.00  0.00    -0.126 N 
ATOM      5  N6  UNL     1       4.715  13.278  19.232  0.00  0.00    -0.179 NA
ATOM      6  C5  UNL     1       5.761  14.075  19.576  0.00  0.00    +0.221 A 
ATOM      7  N7  UNL     1       6.759  14.290  18.680  0.00  0.00    -0.180 NA
ATOM      8  N8  UNL     1       5.828  14.693  20.871  0.00  0.00    -0.311 N 
ATOM      9  H6  UNL     1       2.793  11.701  18.348  0.00  0.00    +0.193 HD
ATOM     10  H7  UNL     1       6.658  15.294  21.074  0.00  0.00    +0.149 HD
ENDROOT
BRANCH   8  11
ATOM     11  C6  UNL     1       4.825  14.549  21.934  0.00  0.00    +0.067 C 
ATOM     12  C7  UNL     1       5.484  14.320  23.298  0.00  0.00    +0.027 C 
ATOM     13  C8  UNL     1       3.861  15.741  21.959  0.00  0.00    +0.027 C 
ENDBRANCH   8  11
BRANCH   4  14
ATOM     14  N4  UNL     1       3.489  11.277  16.437  0.00  0.00    -0.126 NA
ATOM     15  N5  UNL     1       3.430  10.792  15.428  0.00  0.00    -0.017 NA
ENDBRANCH   4  14
BRANCH   1  16
ATOM     16  N1  UNL     1       7.776  13.955  16.524  0.00  0.00    -0.216 NA
BRANCH  16  18
ATOM     17  C1  UNL     1       8.808  16.043  15.809  0.00  0.00    +0.026 C 
ATOM     18  C2  UNL     1       8.866  14.884  16.792  0.00  0.00    +0.128 C 
ENDBRANCH  16  18
ENDBRANCH   1  16
TORSDOF 4
ENDMDL
MODEL 4
REMARK minimizedAffinity -4.16749239
REMARK minimizedRMSD -1
REMARK  Name = /home/tchapet/Post-Doc/ARTICLES-DOSSIERS-DES-ARTICLES-EN-REDACTION/NOUVELS-AXES-DE-RECHERCHE-A-REGARDER-URGEMMENT/ARTICLES-EN-REDACTIONS/ARTICLE_MVOTO/Paper2_Sensors_ActuatorsB/docking_rerun/ligands/17851.pdb
REMARK  7 active torsions:
REMARK  status: ('A' for Active; 'I' for Inactive)
REMARK    1  A    between atoms: C1_1  and  C2_2
REMARK    2  A    between atoms: C2_2  and  N1_3
REMARK    3  A    between atoms: N1_3  and  C3_4
REMARK    4  A    between atoms: N3_7  and  N4_8
REMARK    5  A    between atoms: N8_13  and  C6_14
REMARK    6  A    between atoms: C6_14  and  C7_15
REMARK    7  A    between atoms: C6_14  and  C8_16
REMARK                            x       y       z     vdW  Elec       q    Type
REMARK                         _______ _______ _______ _____ _____    ______ ____
ROOT
ATOM      1  C3  UNL     1       5.829  12.312  17.570  0.00  0.00    +0.241 A 
ATOM      2  N2  UNL     1       4.483  12.129  17.529  0.00  0.00    -0.178 NA
ATOM      3  C4  UNL     1       3.683  12.728  18.448  0.00  0.00    +0.252 A 
ATOM      4  N3  UNL     1       2.268  12.538  18.409  0.00  0.00    -0.126 N 
ATOM      5  N6  UNL     1       4.234  13.512  19.408  0.00  0.00    -0.179 NA
ATOM      6  C5  UNL     1       5.579  13.702  19.457  0.00  0.00    +0.221 A 
ATOM      7  N7  UNL     1       6.371  13.098  18.534  0.00  0.00    -0.180 NA
ATOM      8  N8  UNL     1       6.176  14.530  20.468  0.00  0.00    -0.311 N 
ATOM      9  H6  UNL     1       1.661  13.004  19.120  0.00  0.00    +0.193 HD
ATOM     10  H7  UNL     1       7.215  14.634  20.451  0.00  0.00    +0.149 HD
ENDROOT
BRANCH   8  11
ATOM     11  C6  UNL     1       5.444  15.241  21.525  0.00  0.00    +0.067 C 
ATOM     12  C7  UNL     1       5.261  14.362  22.766  0.00  0.00    +0.027 C 
ATOM     13  C8  UNL     1       6.113  16.578  21.865  0.00  0.00    +0.027 C 
ENDBRANCH   8  11
BRANCH   4  14
ATOM     14  N4  UNL     1       1.697  11.758  17.458  0.00  0.00    -0.126 NA
ATOM     15  N5  UNL     1       1.224  11.114  16.672  0.00  0.00    -0.017 NA
ENDBRANCH   4  14
BRANCH   1  16
ATOM     16  N1  UNL     1       6.680  11.686  16.609  0.00  0.00    -0.216 NA
BRANCH  16  18
ATOM     17  C1  UNL     1       6.409  12.949  14.544  0.00  0.00    +0.026 C 
ATOM     18  C2  UNL     1       6.333  11.578  15.198  0.00  0.00    +0.128 C 
ENDBRANCH  16  18
ENDBRANCH   1  16
TORSDOF 4
ENDMDL
MODEL 5
REMARK minimizedAffinity -4.1519146
REMARK minimizedRMSD -1
REMARK  Name = /home/tchapet/Post-Doc/ARTICLES-DOSSIERS-DES-ARTICLES-EN-REDACTION/NOUVELS-AXES-DE-RECHERCHE-A-REGARDER-URGEMMENT/ARTICLES-EN-REDACTIONS/ARTICLE_MVOTO/Paper2_Sensors_ActuatorsB/docking_rerun/ligands/17851.pdb
REMARK  7 active torsions:
REMARK  status: ('A' for Active; 'I' for Inactive)
REMARK    1  A    between atoms: C1_1  and  C2_2
REMARK    2  A    between atoms: C2_2  and  N1_3
REMARK    3  A    between atoms: N1_3  and  C3_4
REMARK    4  A    between atoms: N3_7  and  N4_8
REMARK    5  A    between atoms: N8_13  and  C6_14
REMARK    6  A    between atoms: C6_14  and  C7_15
REMARK    7  A    between atoms: C6_14  and  C8_16
REMARK                            x       y       z     vdW  Elec       q    Type
REMARK                         _______ _______ _______ _____ _____    ______ ____
ROOT
ATOM      1  C3  UNL     1      33.877   7.145  33.134  0.00  0.00    +0.241 A 
ATOM      2  N2  UNL     1      33.617   7.662  31.905  0.00  0.00    -0.178 NA
ATOM      3  C4  UNL     1      32.822   6.989  31.034  0.00  0.00    +0.252 A 
ATOM      4  N3  UNL     1      32.546   7.529  29.741  0.00  0.00    -0.126 N 
ATOM      5  N6  UNL     1      32.286   5.798  31.397  0.00  0.00    -0.179 NA
ATOM      6  C5  UNL     1      32.539   5.273  32.625  0.00  0.00    +0.221 A 
ATOM      7  N7  UNL     1      33.336   5.952  33.489  0.00  0.00    -0.180 NA
ATOM      8  N8  UNL     1      31.978   4.011  33.023  0.00  0.00    -0.311 N 
ATOM      9  H6  UNL     1      31.933   7.005  29.078  0.00  0.00    +0.193 HD
ATOM     10  H7  UNL     1      32.212   3.662  33.980  0.00  0.00    +0.149 HD
ENDROOT
BRANCH   8  11
ATOM     11  C6  UNL     1      31.103   3.171  32.195  0.00  0.00    +0.067 C 
ATOM     12  C7  UNL     1      31.783   1.848  31.827  0.00  0.00    +0.027 C 
ATOM     13  C8  UNL     1      29.744   2.947  32.867  0.00  0.00    +0.027 C 
ENDBRANCH   8  11
BRANCH   4  14
ATOM     14  N4  UNL     1      33.072   8.720  29.357  0.00  0.00    -0.126 NA
ATOM     15  N5  UNL     1      33.506   9.703  29.041  0.00  0.00    -0.017 NA
ENDBRANCH   4  14
BRANCH   1  16
ATOM     16  N1  UNL     1      34.712   7.844  34.058  0.00  0.00    -0.216 NA
BRANCH  16  18
ATOM     17  C1  UNL     1      34.735   8.554  36.388  0.00  0.00    +0.026 C 
ATOM     18  C2  UNL     1      34.929   7.392  35.426  0.00  0.00    +0.128 C 
ENDBRANCH  16  18
ENDBRANCH   1  16
TORSDOF 4
ENDMDL
MODEL 6
REMARK minimizedAffinity -4.11804152
REMARK minimizedRMSD -1
REMARK  Name = /home/tchapet/Post-Doc/ARTICLES-DOSSIERS-DES-ARTICLES-EN-REDACTION/NOUVELS-AXES-DE-RECHERCHE-A-REGARDER-URGEMMENT/ARTICLES-EN-REDACTIONS/ARTICLE_MVOTO/Paper2_Sensors_ActuatorsB/docking_rerun/ligands/17851.pdb
REMARK  7 active torsions:
REMARK  status: ('A' for Active; 'I' for Inactive)
REMARK    1  A    between atoms: C1_1  and  C2_2
REMARK    2  A    between atoms: C2_2  and  N1_3
REMARK    3  A    between atoms: N1_3  and  C3_4
REMARK    4  A    between atoms: N3_7  and  N4_8
REMARK    5  A    between atoms: N8_13  and  C6_14
REMARK    6  A    between atoms: C6_14  and  C7_15
REMARK    7  A    between atoms: C6_14  and  C8_16
REMARK                            x       y       z     vdW  Elec       q    Type
REMARK                         _______ _______ _______ _____ _____    ______ ____
ROOT
ATOM      1  C3  UNL     1      32.982   6.221  31.865  0.00  0.00    +0.241 A 
ATOM      2  N2  UNL     1      32.987   5.881  30.550  0.00  0.00    -0.178 NA
ATOM      3  C4  UNL     1      32.479   4.686  30.151  0.00  0.00    +0.252 A 
ATOM      4  N3  UNL     1      32.481   4.323  28.770  0.00  0.00    -0.126 N 
ATOM      5  N6  UNL     1      31.965   3.834  31.073  0.00  0.00    -0.179 NA
ATOM      6  C5  UNL     1      31.956   4.166  32.391  0.00  0.00    +0.221 A 
ATOM      7  N7  UNL     1      32.466   5.363  32.780  0.00  0.00    -0.180 NA
ATOM      8  N8  UNL     1      31.415   3.274  33.378  0.00  0.00    -0.311 N 
ATOM      9  H6  UNL     1      32.087   3.403  28.473  0.00  0.00    +0.193 HD
ATOM     10  H7  UNL     1      31.438   3.588  34.374  0.00  0.00    +0.149 HD
ENDROOT
BRANCH   8  11
ATOM     11  C6  UNL     1      30.832   1.954  33.101  0.00  0.00    +0.067 C 
ATOM     12  C7  UNL     1      31.243   0.928  34.163  0.00  0.00    +0.027 C 
ATOM     13  C8  UNL     1      29.310   2.036  32.946  0.00  0.00    +0.027 C 
ENDBRANCH   8  11
BRANCH   4  14
ATOM     14  N4  UNL     1      32.990   5.161  27.832  0.00  0.00    -0.126 NA
ATOM     15  N5  UNL     1      33.411   5.852  27.056  0.00  0.00    -0.017 NA
ENDBRANCH   4  14
BRANCH   1  16
ATOM     16  N1  UNL     1      33.514   7.475  32.295  0.00  0.00    -0.216 NA
BRANCH  16  18
ATOM     17  C1  UNL     1      34.602   7.734  34.460  0.00  0.00    +0.026 C 
ATOM     18  C2  UNL     1      34.806   7.600  32.959  0.00  0.00    +0.128 C 
ENDBRANCH  16  18
ENDBRANCH   1  16
TORSDOF 4
ENDMDL
MODEL 7
REMARK minimizedAffinity -4.0921793
REMARK minimizedRMSD -1
REMARK  Name = /home/tchapet/Post-Doc/ARTICLES-DOSSIERS-DES-ARTICLES-EN-REDACTION/NOUVELS-AXES-DE-RECHERCHE-A-REGARDER-URGEMMENT/ARTICLES-EN-REDACTIONS/ARTICLE_MVOTO/Paper2_Sensors_ActuatorsB/docking_rerun/ligands/17851.pdb
REMARK  7 active torsions:
REMARK  status: ('A' for Active; 'I' for Inactive)
REMARK    1  A    between atoms: C1_1  and  C2_2
REMARK    2  A    between atoms: C2_2  and  N1_3
REMARK    3  A    between atoms: N1_3  and  C3_4
REMARK    4  A    between atoms: N3_7  and  N4_8
REMARK    5  A    between atoms: N8_13  and  C6_14
REMARK    6  A    between atoms: C6_14  and  C7_15
REMARK    7  A    between atoms: C6_14  and  C8_16
REMARK                            x       y       z     vdW  Elec       q    Type
REMARK                         _______ _______ _______ _____ _____    ______ ____
ROOT
ATOM      1  C3  UNL     1       6.885  15.178  18.546  0.00  0.00    +0.241 A 
ATOM      2  N2  UNL     1       7.565  15.328  17.379  0.00  0.00    -0.178 NA
ATOM      3  C4  UNL     1       8.553  16.255  17.278  0.00  0.00    +0.252 A 
ATOM      4  N3  UNL     1       9.270  16.417  16.054  0.00  0.00    -0.126 N 
ATOM      5  N6  UNL     1       8.859  17.029  18.349  0.00  0.00    -0.179 NA
ATOM      6  C5  UNL     1       8.185  16.885  19.520  0.00  0.00    +0.221 A 
ATOM      7  N7  UNL     1       7.198  15.957  19.611  0.00  0.00    -0.180 NA
ATOM      8  N8  UNL     1       8.499  17.698  20.662  0.00  0.00    -0.311 N 
ATOM      9  H6  UNL     1      10.029  17.131  15.986  0.00  0.00    +0.193 HD
ATOM     10  H7  UNL     1       7.943  17.539  21.532  0.00  0.00    +0.149 HD
ENDROOT
BRANCH   8  11
ATOM     11  C6  UNL     1       9.537  18.736  20.706  0.00  0.00    +0.067 C 
ATOM     12  C7  UNL     1       8.922  20.139  20.768  0.00  0.00    +0.027 C 
ATOM     13  C8  UNL     1      10.522  18.493  21.855  0.00  0.00    +0.027 C 
ENDBRANCH   8  11
BRANCH   4  14
ATOM     14  N4  UNL     1       8.980  15.653  14.971  0.00  0.00    -0.126 NA
ATOM     15  N5  UNL     1       8.739  15.022  14.076  0.00  0.00    -0.017 NA
ENDBRANCH   4  14
BRANCH   1  16
ATOM     16  N1  UNL     1       5.843  14.208  18.663  0.00  0.00    -0.216 NA
BRANCH  16  18
ATOM     17  C1  UNL     1       4.986  13.246  20.730  0.00  0.00    +0.026 C 
ATOM     18  C2  UNL     1       5.931  13.058  19.554  0.00  0.00    +0.128 C 
ENDBRANCH  16  18
ENDBRANCH   1  16
TORSDOF 4
ENDMDL
MODEL 8
REMARK minimizedAffinity -4.08926678
REMARK minimizedRMSD -1
REMARK  Name = /home/tchapet/Post-Doc/ARTICLES-DOSSIERS-DES-ARTICLES-EN-REDACTION/NOUVELS-AXES-DE-RECHERCHE-A-REGARDER-URGEMMENT/ARTICLES-EN-REDACTIONS/ARTICLE_MVOTO/Paper2_Sensors_ActuatorsB/docking_rerun/ligands/17851.pdb
REMARK  7 active torsions:
REMARK  status: ('A' for Active; 'I' for Inactive)
REMARK    1  A    between atoms: C1_1  and  C2_2
REMARK    2  A    between atoms: C2_2  and  N1_3
REMARK    3  A    between atoms: N1_3  and  C3_4
REMARK    4  A    between atoms: N3_7  and  N4_8
REMARK    5  A    between atoms: N8_13  and  C6_14
REMARK    6  A    between atoms: C6_14  and  C7_15
REMARK    7  A    between atoms: C6_14  and  C8_16
REMARK                            x       y       z     vdW  Elec       q    Type
REMARK                         _______ _______ _______ _____ _____    ______ ____
ROOT
ATOM      1  C3  UNL     1      13.920   4.030  49.559  0.00  0.00    +0.241 A 
ATOM      2  N2  UNL     1      15.101   4.682  49.393  0.00  0.00    -0.178 NA
ATOM      3  C4  UNL     1      15.818   4.516  48.252  0.00  0.00    +0.252 A 
ATOM      4  N3  UNL     1      17.060   5.199  48.072  0.00  0.00    -0.126 N 
ATOM      5  N6  UNL     1      15.350   3.698  47.277  0.00  0.00    -0.179 NA
ATOM      6  C5  UNL     1      14.169   3.042  47.434  0.00  0.00    +0.221 A 
ATOM      7  N7  UNL     1      13.459   3.213  48.579  0.00  0.00    -0.180 NA
ATOM      8  N8  UNL     1      13.661   2.172  46.410  0.00  0.00    -0.311 N 
ATOM      9  H6  UNL     1      17.604   5.065  47.191  0.00  0.00    +0.193 HD
ATOM     10  H7  UNL     1      12.749   1.698  46.593  0.00  0.00    +0.149 HD
ENDROOT
BRANCH   8  11
ATOM     11  C6  UNL     1      14.320   1.895  45.127  0.00  0.00    +0.067 C 
ATOM     12  C7  UNL     1      14.028   0.470  44.645  0.00  0.00    +0.027 C 
ATOM     13  C8  UNL     1      13.950   2.942  44.070  0.00  0.00    +0.027 C 
ENDBRANCH   8  11
BRANCH   4  14
ATOM     14  N4  UNL     1      17.547   6.022  49.034  0.00  0.00    -0.126 NA
ATOM     15  N5  UNL     1      17.948   6.702  49.830  0.00  0.00    -0.017 NA
ENDBRANCH   4  14
BRANCH   1  16
ATOM     16  N1  UNL     1      13.158   4.196  50.755  0.00  0.00    -0.216 NA
BRANCH  16  18
ATOM     17  C1  UNL     1      11.658   5.946  49.965  0.00  0.00    +0.026 C 
ATOM     18  C2  UNL     1      11.773   4.651  50.754  0.00  0.00    +0.128 C 
ENDBRANCH  16  18
ENDBRANCH   1  16
TORSDOF 4
ENDMDL
MODEL 9
REMARK minimizedAffinity -4.06784773
REMARK minimizedRMSD -1
REMARK  Name = /home/tchapet/Post-Doc/ARTICLES-DOSSIERS-DES-ARTICLES-EN-REDACTION/NOUVELS-AXES-DE-RECHERCHE-A-REGARDER-URGEMMENT/ARTICLES-EN-REDACTIONS/ARTICLE_MVOTO/Paper2_Sensors_ActuatorsB/docking_rerun/ligands/17851.pdb
REMARK  7 active torsions:
REMARK  status: ('A' for Active; 'I' for Inactive)
REMARK    1  A    between atoms: C1_1  and  C2_2
REMARK    2  A    between atoms: C2_2  and  N1_3
REMARK    3  A    between atoms: N1_3  and  C3_4
REMARK    4  A    between atoms: N3_7  and  N4_8
REMARK    5  A    between atoms: N8_13  and  C6_14
REMARK    6  A    between atoms: C6_14  and  C7_15
REMARK    7  A    between atoms: C6_14  and  C8_16
REMARK                            x       y       z     vdW  Elec       q    Type
REMARK                         _______ _______ _______ _____ _____    ______ ____
ROOT
ATOM      1  C3  UNL     1       5.027  13.724  19.163  0.00  0.00    +0.241 A 
ATOM      2  N2  UNL     1       6.144  13.917  18.414  0.00  0.00    -0.178 NA
ATOM      3  C4  UNL     1       6.300  13.255  17.238  0.00  0.00    +0.252 A 
ATOM      4  N3  UNL     1       7.472  13.454  16.447  0.00  0.00    -0.126 N 
ATOM      5  N6  UNL     1       5.335  12.402  16.814  0.00  0.00    -0.179 NA
ATOM      6  C5  UNL     1       4.214  12.204  17.557  0.00  0.00    +0.221 A 
ATOM      7  N7  UNL     1       4.066  12.869  18.731  0.00  0.00    -0.180 NA
ATOM      8  N8  UNL     1       3.183  11.304  17.119  0.00  0.00    -0.311 N 
ATOM      9  H6  UNL     1       7.583  12.942  15.544  0.00  0.00    +0.193 HD
ATOM     10  H7  UNL     1       2.347  11.195  17.736  0.00  0.00    +0.149 HD
ENDROOT
BRANCH   8  11
ATOM     11  C6  UNL     1       3.209  10.522  15.876  0.00  0.00    +0.067 C 
ATOM     12  C7  UNL     1       2.484   9.182  16.043  0.00  0.00    +0.027 C 
ATOM     13  C8  UNL     1       2.655  11.329  14.697  0.00  0.00    +0.027 C 
ENDBRANCH   8  11
BRANCH   4  14
ATOM     14  N4  UNL     1       8.450  14.303  16.853  0.00  0.00    -0.126 NA
ATOM     15  N5  UNL     1       9.258  15.003  17.188  0.00  0.00    -0.017 NA
ENDBRANCH   4  14
BRANCH   1  16
ATOM     16  N1  UNL     1       4.852  14.414  20.402  0.00  0.00    -0.216 NA
BRANCH  16  18
ATOM     17  C1  UNL     1       5.282  14.628  22.790  0.00  0.00    +0.026 C 
ATOM     18  C2  UNL     1       4.758  13.726  21.683  0.00  0.00    +0.128 C 
ENDBRANCH  16  18
ENDBRANCH   1  16
TORSDOF 4
ENDMDL
