MODEL 1
REMARK minimizedAffinity -4.54743576
REMARK minimizedRMSD -1
REMARK  Name = /home/tchapet/Post-Doc/ARTICLES-DOSSIERS-DES-ARTICLES-EN-REDACTION/NOUVELS-AXES-DE-RECHERCHE-A-REGARDER-URGEMMENT/ARTICLES-EN-REDACTIONS/ARTICLE_MVOTO/Paper2_Sensors_ActuatorsB/docking_rerun/ligands/17851.pdb
REMARK  7 active torsions:
REMARK  status: ('A' for Active; 'I' for Inactive)
REMARK    1  A    between atoms: C1_1  and  C2_2
REMARK    2  A    between atoms: C2_2  and  N1_3
REMARK    3  A    between atoms: N1_3  and  C3_4
REMARK    4  A    between atoms: N3_7  and  N4_8
REMARK    5  A    between atoms: N8_13  and  C6_14
REMARK    6  A    between atoms: C6_14  and  C7_15
REMARK    7  A    between atoms: C6_14  and  C8_16
REMARK                            x       y       z     vdW  Elec       q    Type
REMARK                         _______ _______ _______ _____ _____    ______ ____
ROOT
ATOM      1  C3  UNL     1      13.043 -13.503  -0.742  0.00  0.00    +0.241 A 
ATOM      2  N2  UNL     1      13.002 -14.846  -0.541  0.00  0.00    -0.178 NA
ATOM      3  C4  UNL     1      11.816 -15.507  -0.578  0.00  0.00    +0.252 A 
ATOM      4  N3  UNL     1      11.768 -16.919  -0.367  0.00  0.00    -0.126 N 
ATOM      5  N6  UNL     1      10.672 -14.820  -0.818  0.00  0.00    -0.179 NA
ATOM      6  C5  UNL     1      10.703 -13.477  -1.021  0.00  0.00    +0.221 A 
ATOM      7  N7  UNL     1      11.893 -12.824  -0.981  0.00  0.00    -0.180 NA
ATOM      8  N8  UNL     1       9.499 -12.736  -1.277  0.00  0.00    -0.311 N 
ATOM      9  H6  UNL     1      10.851 -17.418  -0.399  0.00  0.00    +0.193 HD
ATOM     10  H7  UNL     1       9.590 -11.706  -1.423  0.00  0.00    +0.149 HD
ENDROOT
BRANCH   8  11
ATOM     11  C6  UNL     1       8.148 -13.309  -1.347  0.00  0.00    +0.067 C 
ATOM     12  C7  UNL     1       7.261 -12.793  -0.209  0.00  0.00    +0.027 C 
ATOM     13  C8  UNL     1       7.510 -13.070  -2.721  0.00  0.00    +0.027 C 
ENDBRANCH   8  11
BRANCH   4  14
ATOM     14  N4  UNL     1      12.901 -17.625  -0.126  0.00  0.00    -0.126 NA
ATOM     15  N5  UNL     1      13.837 -18.208   0.074  0.00  0.00    -0.017 NA
ENDBRANCH   4  14
BRANCH   1  16
ATOM     16  N1  UNL     1      14.284 -12.798  -0.704  0.00  0.00    -0.216 NA
BRANCH  16  18
ATOM     17  C1  UNL     1      14.848 -12.427  -3.045  0.00  0.00    +0.026 C 
ATOM     18  C2  UNL     1      14.645 -11.780  -1.683  0.00  0.00    +0.128 C 
ENDBRANCH  16  18
ENDBRANCH   1  16
TORSDOF 4
ENDMDL
MODEL 2
REMARK minimizedAffinity -4.47101355
REMARK minimizedRMSD -1
REMARK  Name = /home/tchapet/Post-Doc/ARTICLES-DOSSIERS-DES-ARTICLES-EN-REDACTION/NOUVELS-AXES-DE-RECHERCHE-A-REGARDER-URGEMMENT/ARTICLES-EN-REDACTIONS/ARTICLE_MVOTO/Paper2_Sensors_ActuatorsB/docking_rerun/ligands/17851.pdb
REMARK  7 active torsions:
REMARK  status: ('A' for Active; 'I' for Inactive)
REMARK    1  A    between atoms: C1_1  and  C2_2
REMARK    2  A    between atoms: C2_2  and  N1_3
REMARK    3  A    between atoms: N1_3  and  C3_4
REMARK    4  A    between atoms: N3_7  and  N4_8
REMARK    5  A    between atoms: N8_13  and  C6_14
REMARK    6  A    between atoms: C6_14  and  C7_15
REMARK    7  A    between atoms: C6_14  and  C8_16
REMARK                            x       y       z     vdW  Elec       q    Type
REMARK                         _______ _______ _______ _____ _____    ______ ____
ROOT
ATOM      1  C3  UNL     1      12.576 -15.947  -0.401  0.00  0.00    +0.241 A 
ATOM      2  N2  UNL     1      13.083 -14.692  -0.517  0.00  0.00    -0.178 NA
ATOM      3  C4  UNL     1      12.282 -13.664  -0.898  0.00  0.00    +0.252 A 
ATOM      4  N3  UNL     1      12.811 -12.343  -1.021  0.00  0.00    -0.126 N 
ATOM      5  N6  UNL     1      10.972 -13.895  -1.161  0.00  0.00    -0.179 NA
ATOM      6  C5  UNL     1      10.456 -15.147  -1.047  0.00  0.00    +0.221 A 
ATOM      7  N7  UNL     1      11.264 -16.170  -0.667  0.00  0.00    -0.180 NA
ATOM      8  N8  UNL     1       9.070 -15.407  -1.323  0.00  0.00    -0.311 N 
ATOM      9  H6  UNL     1      12.187 -11.558  -1.314  0.00  0.00    +0.193 HD
ATOM     10  H7  UNL     1       8.736 -16.391  -1.218  0.00  0.00    +0.149 HD
ENDROOT
BRANCH   8  11
ATOM     11  C6  UNL     1       8.085 -14.401  -1.742  0.00  0.00    +0.067 C 
ATOM     12  C7  UNL     1       7.097 -14.978  -2.762  0.00  0.00    +0.027 C 
ATOM     13  C8  UNL     1       7.366 -13.786  -0.536  0.00  0.00    +0.027 C 
ENDBRANCH   8  11
BRANCH   4  14
ATOM     14  N4  UNL     1      14.118 -12.089  -0.762  0.00  0.00    -0.126 NA
ATOM     15  N5  UNL     1      15.199 -11.880  -0.549  0.00  0.00    -0.017 NA
ENDBRANCH   4  14
BRANCH   1  16
ATOM     16  N1  UNL     1      13.409 -17.037  -0.002  0.00  0.00    -0.216 NA
BRANCH  16  18
ATOM     17  C1  UNL     1      12.969 -19.425   0.189  0.00  0.00    +0.026 C 
ATOM     18  C2  UNL     1      13.451 -18.305  -0.720  0.00  0.00    +0.128 C 
ENDBRANCH  16  18
ENDBRANCH   1  16
TORSDOF 4
ENDMDL
MODEL 3
REMARK minimizedAffinity -4.44249964
REMARK minimizedRMSD -1
REMARK  Name = /home/tchapet/Post-Doc/ARTICLES-DOSSIERS-DES-ARTICLES-EN-REDACTION/NOUVELS-AXES-DE-RECHERCHE-A-REGARDER-URGEMMENT/ARTICLES-EN-REDACTIONS/ARTICLE_MVOTO/Paper2_Sensors_ActuatorsB/docking_rerun/ligands/17851.pdb
REMARK  7 active torsions:
REMARK  status: ('A' for Active; 'I' for Inactive)
REMARK    1  A    between atoms: C1_1  and  C2_2
REMARK    2  A    between atoms: C2_2  and  N1_3
REMARK    3  A    between atoms: N1_3  and  C3_4
REMARK    4  A    between atoms: N3_7  and  N4_8
REMARK    5  A    between atoms: N8_13  and  C6_14
REMARK    6  A    between atoms: C6_14  and  C7_15
REMARK    7  A    between atoms: C6_14  and  C8_16
REMARK                            x       y       z     vdW  Elec       q    Type
REMARK                         _______ _______ _______ _____ _____    ______ ____
ROOT
ATOM      1  C3  UNL     1      -1.994 -14.346  13.500  0.00  0.00    +0.241 A 
ATOM      2  N2  UNL     1      -0.923 -15.163  13.675  0.00  0.00    -0.178 NA
ATOM      3  C4  UNL     1      -0.063 -14.951  14.705  0.00  0.00    +0.252 A 
ATOM      4  N3  UNL     1       1.064 -15.807  14.893  0.00  0.00    -0.126 N 
ATOM      5  N6  UNL     1      -0.280 -13.921  15.560  0.00  0.00    -0.179 NA
ATOM      6  C5  UNL     1      -1.349 -13.099  15.393  0.00  0.00    +0.221 A 
ATOM      7  N7  UNL     1      -2.203 -13.317  14.360  0.00  0.00    -0.180 NA
ATOM      8  N8  UNL     1      -1.591 -12.003  16.290  0.00  0.00    -0.311 N 
ATOM      9  H6  UNL     1       1.719 -15.637  15.689  0.00  0.00    +0.193 HD
ATOM     10  H7  UNL     1      -2.430 -11.408  16.106  0.00  0.00    +0.149 HD
ENDROOT
BRANCH   8  11
ATOM     11  C6  UNL     1      -0.754 -11.650  17.445  0.00  0.00    +0.067 C 
ATOM     12  C7  UNL     1      -0.663 -10.131  17.625  0.00  0.00    +0.027 C 
ATOM     13  C8  UNL     1      -1.238 -12.349  18.720  0.00  0.00    +0.027 C 
ENDBRANCH   8  11
BRANCH   4  14
ATOM     14  N4  UNL     1       1.300 -16.844  14.050  0.00  0.00    -0.126 NA
ATOM     15  N5  UNL     1       1.494 -17.701  13.354  0.00  0.00    -0.017 NA
ENDBRANCH   4  14
BRANCH   1  16
ATOM     16  N1  UNL     1      -2.904 -14.558  12.420  0.00  0.00    -0.216 NA
BRANCH  16  18
ATOM     17  C1  UNL     1      -3.211 -14.997  10.043  0.00  0.00    +0.026 C 
ATOM     18  C2  UNL     1      -2.659 -15.526  11.358  0.00  0.00    +0.128 C 
ENDBRANCH  16  18
ENDBRANCH   1  16
TORSDOF 4
ENDMDL
MODEL 4
REMARK minimizedAffinity -4.39528751
REMARK minimizedRMSD -1
REMARK  Name = /home/tchapet/Post-Doc/ARTICLES-DOSSIERS-DES-ARTICLES-EN-REDACTION/NOUVELS-AXES-DE-RECHERCHE-A-REGARDER-URGEMMENT/ARTICLES-EN-REDACTIONS/ARTICLE_MVOTO/Paper2_Sensors_ActuatorsB/docking_rerun/ligands/17851.pdb
REMARK  7 active torsions:
REMARK  status: ('A' for Active; 'I' for Inactive)
REMARK    1  A    between atoms: C1_1  and  C2_2
REMARK    2  A    between atoms: C2_2  and  N1_3
REMARK    3  A    between atoms: N1_3  and  C3_4
REMARK    4  A    between atoms: N3_7  and  N4_8
REMARK    5  A    between atoms: N8_13  and  C6_14
REMARK    6  A    between atoms: C6_14  and  C7_15
REMARK    7  A    between atoms: C6_14  and  C8_16
REMARK                            x       y       z     vdW  Elec       q    Type
REMARK                         _______ _______ _______ _____ _____    ______ ____
ROOT
ATOM      1  C3  UNL     1       0.362 -14.997  20.276  0.00  0.00    +0.241 A 
ATOM      2  N2  UNL     1      -0.350 -14.656  21.382  0.00  0.00    -0.178 NA
ATOM      3  C4  UNL     1      -1.268 -13.657  21.323  0.00  0.00    +0.252 A 
ATOM      4  N3  UNL     1      -2.019 -13.295  22.482  0.00  0.00    -0.126 N 
ATOM      5  N6  UNL     1      -1.472 -13.001  20.153  0.00  0.00    -0.179 NA
ATOM      6  C5  UNL     1      -0.764 -13.336  19.042  0.00  0.00    +0.221 A 
ATOM      7  N7  UNL     1       0.152 -14.336  19.111  0.00  0.00    -0.180 NA
ATOM      8  N8  UNL     1      -0.970 -12.650  17.796  0.00  0.00    -0.311 N 
ATOM      9  H6  UNL     1      -2.723 -12.526  22.426  0.00  0.00    +0.193 HD
ATOM     10  H7  UNL     1      -0.394 -12.955  16.980  0.00  0.00    +0.149 HD
ENDROOT
BRANCH   8  11
ATOM     11  C6  UNL     1      -1.923 -11.554  17.577  0.00  0.00    +0.067 C 
ATOM     12  C7  UNL     1      -1.230 -10.189  17.639  0.00  0.00    +0.027 C 
ATOM     13  C8  UNL     1      -2.700 -11.742  16.269  0.00  0.00    +0.027 C 
ENDBRANCH   8  11
BRANCH   4  14
ATOM     14  N4  UNL     1      -1.831 -13.938  23.662  0.00  0.00    -0.126 NA
ATOM     15  N5  UNL     1      -1.675 -14.468  24.637  0.00  0.00    -0.017 NA
ENDBRANCH   4  14
BRANCH   1  16
ATOM     16  N1  UNL     1       1.330 -16.046  20.328  0.00  0.00    -0.216 NA
BRANCH  16  18
ATOM     17  C1  UNL     1       2.785 -17.835  19.541  0.00  0.00    +0.026 C 
ATOM     18  C2  UNL     1       1.721 -16.819  19.156  0.00  0.00    +0.128 C 
ENDBRANCH  16  18
ENDBRANCH   1  16
TORSDOF 4
ENDMDL
MODEL 5
REMARK minimizedAffinity -4.29894304
REMARK minimizedRMSD -1
REMARK  Name = /home/tchapet/Post-Doc/ARTICLES-DOSSIERS-DES-ARTICLES-EN-REDACTION/NOUVELS-AXES-DE-RECHERCHE-A-REGARDER-URGEMMENT/ARTICLES-EN-REDACTIONS/ARTICLE_MVOTO/Paper2_Sensors_ActuatorsB/docking_rerun/ligands/17851.pdb
REMARK  7 active torsions:
REMARK  status: ('A' for Active; 'I' for Inactive)
REMARK    1  A    between atoms: C1_1  and  C2_2
REMARK    2  A    between atoms: C2_2  and  N1_3
REMARK    3  A    between atoms: N1_3  and  C3_4
REMARK    4  A    between atoms: N3_7  and  N4_8
REMARK    5  A    between atoms: N8_13  and  C6_14
REMARK    6  A    between atoms: C6_14  and  C7_15
REMARK    7  A    between atoms: C6_14  and  C8_16
REMARK                            x       y       z     vdW  Elec       q    Type
REMARK                         _______ _______ _______ _____ _____    ______ ____
ROOT
ATOM      1  C3  UNL     1      -1.532  -3.937   3.132  0.00  0.00    +0.241 A 
ATOM      2  N2  UNL     1      -0.749  -2.900   2.737  0.00  0.00    -0.178 NA
ATOM      3  C4  UNL     1       0.581  -3.085   2.537  0.00  0.00    +0.252 A 
ATOM      4  N3  UNL     1       1.408  -1.997   2.122  0.00  0.00    -0.126 N 
ATOM      5  N6  UNL     1       1.125  -4.312   2.731  0.00  0.00    -0.179 NA
ATOM      6  C5  UNL     1       0.349  -5.356   3.125  0.00  0.00    +0.221 A 
ATOM      7  N7  UNL     1      -0.979  -5.162   3.325  0.00  0.00    -0.180 NA
ATOM      8  N8  UNL     1       0.912  -6.661   3.335  0.00  0.00    -0.311 N 
ATOM      9  H6  UNL     1       2.430  -2.150   1.969  0.00  0.00    +0.193 HD
ATOM     10  H7  UNL     1       0.263  -7.421   3.639  0.00  0.00    +0.149 HD
ENDROOT
BRANCH   8  11
ATOM     11  C6  UNL     1       2.327  -7.015   3.159  0.00  0.00    +0.067 C 
ATOM     12  C7  UNL     1       2.926  -7.585   4.449  0.00  0.00    +0.027 C 
ATOM     13  C8  UNL     1       2.522  -7.963   1.970  0.00  0.00    +0.027 C 
ENDBRANCH   8  11
BRANCH   4  14
ATOM     14  N4  UNL     1       0.885  -0.762   1.921  0.00  0.00    -0.126 NA
ATOM     15  N5  UNL     1       0.452   0.259   1.755  0.00  0.00    -0.017 NA
ENDBRANCH   4  14
BRANCH   1  16
ATOM     16  N1  UNL     1      -2.932  -3.754   3.347  0.00  0.00    -0.216 NA
BRANCH  16  18
ATOM     17  C1  UNL     1      -4.352  -5.216   4.682  0.00  0.00    +0.026 C 
ATOM     18  C2  UNL     1      -3.560  -3.918   4.652  0.00  0.00    +0.128 C 
ENDBRANCH  16  18
ENDBRANCH   1  16
TORSDOF 4
ENDMDL
MODEL 6
REMARK minimizedAffinity -4.2977829
REMARK minimizedRMSD -1
REMARK  Name = /home/tchapet/Post-Doc/ARTICLES-DOSSIERS-DES-ARTICLES-EN-REDACTION/NOUVELS-AXES-DE-RECHERCHE-A-REGARDER-URGEMMENT/ARTICLES-EN-REDACTIONS/ARTICLE_MVOTO/Paper2_Sensors_ActuatorsB/docking_rerun/ligands/17851.pdb
REMARK  7 active torsions:
REMARK  status: ('A' for Active; 'I' for Inactive)
REMARK    1  A    between atoms: C1_1  and  C2_2
REMARK    2  A    between atoms: C2_2  and  N1_3
REMARK    3  A    between atoms: N1_3  and  C3_4
REMARK    4  A    between atoms: N3_7  and  N4_8
REMARK    5  A    between atoms: N8_13  and  C6_14
REMARK    6  A    between atoms: C6_14  and  C7_15
REMARK    7  A    between atoms: C6_14  and  C8_16
REMARK                            x       y       z     vdW  Elec       q    Type
REMARK                         _______ _______ _______ _____ _____    ______ ____
ROOT
ATOM      1  C3  UNL     1       8.072  -2.025   0.376  0.00  0.00    +0.241 A 
ATOM      2  N2  UNL     1       8.926  -3.028   0.043  0.00  0.00    -0.178 NA
ATOM      3  C4  UNL     1      10.268  -2.823   0.078  0.00  0.00    +0.252 A 
ATOM      4  N3  UNL     1      11.169  -3.875  -0.272  0.00  0.00    -0.126 N 
ATOM      5  N6  UNL     1      10.753  -1.612   0.447  0.00  0.00    -0.179 NA
ATOM      6  C5  UNL     1       9.906  -0.603   0.783  0.00  0.00    +0.221 A 
ATOM      7  N7  UNL     1       8.566  -0.817   0.745  0.00  0.00    -0.180 NA
ATOM      8  N8  UNL     1      10.406   0.685   1.177  0.00  0.00    -0.311 N 
ATOM      9  H6  UNL     1      12.200  -3.708  -0.241  0.00  0.00    +0.193 HD
ATOM     10  H7  UNL     1       9.704   1.418   1.421  0.00  0.00    +0.149 HD
ENDROOT
BRANCH   8  11
ATOM     11  C6  UNL     1      11.825   1.056   1.262  0.00  0.00    +0.067 C 
ATOM     12  C7  UNL     1      12.183   2.135   0.235  0.00  0.00    +0.027 C 
ATOM     13  C8  UNL     1      12.209   1.473   2.686  0.00  0.00    +0.027 C 
ENDBRANCH   8  11
BRANCH   4  14
ATOM     14  N4  UNL     1      10.705  -5.094  -0.645  0.00  0.00    -0.126 NA
ATOM     15  N5  UNL     1      10.323  -6.101  -0.953  0.00  0.00    -0.017 NA
ENDBRANCH   4  14
BRANCH   1  16
ATOM     16  N1  UNL     1       6.659  -2.229   0.343  0.00  0.00    -0.216 NA
BRANCH  16  18
ATOM     17  C1  UNL     1       5.797  -1.032  -1.595  0.00  0.00    +0.026 C 
ATOM     18  C2  UNL     1       5.721  -1.199  -0.086  0.00  0.00    +0.128 C 
ENDBRANCH  16  18
ENDBRANCH   1  16
TORSDOF 4
ENDMDL
MODEL 7
REMARK minimizedAffinity -4.27425146
REMARK minimizedRMSD -1
REMARK  Name = /home/tchapet/Post-Doc/ARTICLES-DOSSIERS-DES-ARTICLES-EN-REDACTION/NOUVELS-AXES-DE-RECHERCHE-A-REGARDER-URGEMMENT/ARTICLES-EN-REDACTIONS/ARTICLE_MVOTO/Paper2_Sensors_ActuatorsB/docking_rerun/ligands/17851.pdb
REMARK  7 active torsions:
REMARK  status: ('A' for Active; 'I' for Inactive)
REMARK    1  A    between atoms: C1_1  and  C2_2
REMARK    2  A    between atoms: C2_2  and  N1_3
REMARK    3  A    between atoms: N1_3  and  C3_4
REMARK    4  A    between atoms: N3_7  and  N4_8
REMARK    5  A    between atoms: N8_13  and  C6_14
REMARK    6  A    between atoms: C6_14  and  C7_15
REMARK    7  A    between atoms: C6_14  and  C8_16
REMARK                            x       y       z     vdW  Elec       q    Type
REMARK                         _______ _______ _______ _____ _____    ______ ____
ROOT
ATOM      1  C3  UNL     1       2.100  14.895  20.324  0.00  0.00    +0.241 A 
ATOM      2  N2  UNL     1       1.196  15.161  21.303  0.00  0.00    -0.178 NA
ATOM      3  C4  UNL     1      -0.082  15.490  20.982  0.00  0.00    +0.252 A 
ATOM      4  N3  UNL     1      -1.036  15.770  22.008  0.00  0.00    -0.126 N 
ATOM      5  N6  UNL     1      -0.453  15.552  19.679  0.00  0.00    -0.179 NA
ATOM      6  C5  UNL     1       0.445  15.287  18.693  0.00  0.00    +0.221 A 
ATOM      7  N7  UNL     1       1.720  14.960  19.023  0.00  0.00    -0.180 NA
ATOM      8  N8  UNL     1       0.066  15.349  17.309  0.00  0.00    -0.311 N 
ATOM      9  H6  UNL     1      -2.017  16.021  21.751  0.00  0.00    +0.193 HD
ATOM     10  H7  UNL     1       0.803  15.135  16.600  0.00  0.00    +0.149 HD
ENDROOT
BRANCH   8  11
ATOM     11  C6  UNL     1      -1.273  15.688  16.808  0.00  0.00    +0.067 C 
ATOM     12  C7  UNL     1      -1.237  16.935  15.919  0.00  0.00    +0.027 C 
ATOM     13  C8  UNL     1      -1.922  14.497  16.096  0.00  0.00    +0.027 C 
ENDBRANCH   8  11
BRANCH   4  14
ATOM     14  N4  UNL     1      -0.686  15.714  23.318  0.00  0.00    -0.126 NA
ATOM     15  N5  UNL     1      -0.397  15.668  24.399  0.00  0.00    -0.017 NA
ENDBRANCH   4  14
BRANCH   1  16
ATOM     16  N1  UNL     1       3.447  14.548  20.650  0.00  0.00    -0.216 NA
BRANCH  16  18
ATOM     17  C1  UNL     1       5.761  13.915  20.228  0.00  0.00    +0.026 C 
ATOM     18  C2  UNL     1       4.543  14.655  19.696  0.00  0.00    +0.128 C 
ENDBRANCH  16  18
ENDBRANCH   1  16
TORSDOF 4
ENDMDL
MODEL 8
REMARK minimizedAffinity -4.26175451
REMARK minimizedRMSD -1
REMARK  Name = /home/tchapet/Post-Doc/ARTICLES-DOSSIERS-DES-ARTICLES-EN-REDACTION/NOUVELS-AXES-DE-RECHERCHE-A-REGARDER-URGEMMENT/ARTICLES-EN-REDACTIONS/ARTICLE_MVOTO/Paper2_Sensors_ActuatorsB/docking_rerun/ligands/17851.pdb
REMARK  7 active torsions:
REMARK  status: ('A' for Active; 'I' for Inactive)
REMARK    1  A    between atoms: C1_1  and  C2_2
REMARK    2  A    between atoms: C2_2  and  N1_3
REMARK    3  A    between atoms: N1_3  and  C3_4
REMARK    4  A    between atoms: N3_7  and  N4_8
REMARK    5  A    between atoms: N8_13  and  C6_14
REMARK    6  A    between atoms: C6_14  and  C7_15
REMARK    7  A    between atoms: C6_14  and  C8_16
REMARK                            x       y       z     vdW  Elec       q    Type
REMARK                         _______ _______ _______ _____ _____    ______ ____
ROOT
ATOM      1  C3  UNL     1      -1.142 -14.701  21.304  0.00  0.00    +0.241 A 
ATOM      2  N2  UNL     1      -0.122 -15.393  20.732  0.00  0.00    -0.178 NA
ATOM      3  C4  UNL     1       0.381 -15.002  19.533  0.00  0.00    +0.252 A 
ATOM      4  N3  UNL     1       1.453 -15.726  18.928  0.00  0.00    -0.126 N 
ATOM      5  N6  UNL     1      -0.138 -13.916  18.909  0.00  0.00    -0.179 NA
ATOM      6  C5  UNL     1      -1.158 -13.217  19.474  0.00  0.00    +0.221 A 
ATOM      7  N7  UNL     1      -1.656 -13.616  20.672  0.00  0.00    -0.180 NA
ATOM      8  N8  UNL     1      -1.718 -12.064  18.824  0.00  0.00    -0.311 N 
ATOM      9  H6  UNL     1       1.834 -15.417  18.006  0.00  0.00    +0.193 HD
ATOM     10  H7  UNL     1      -2.501 -11.572  19.310  0.00  0.00    +0.149 HD
ENDROOT
BRANCH   8  11
ATOM     11  C6  UNL     1      -1.280 -11.522  17.531  0.00  0.00    +0.067 C 
ATOM     12  C7  UNL     1      -2.450 -11.410  16.547  0.00  0.00    +0.027 C 
ATOM     13  C8  UNL     1      -0.549 -10.187  17.703  0.00  0.00    +0.027 C 
ENDBRANCH   8  11
BRANCH   4  14
ATOM     14  N4  UNL     1       1.987 -16.815  19.535  0.00  0.00    -0.126 NA
ATOM     15  N5  UNL     1       2.428 -17.715  20.037  0.00  0.00    -0.017 NA
ENDBRANCH   4  14
BRANCH   1  16
ATOM     16  N1  UNL     1      -1.680 -15.104  22.565  0.00  0.00    -0.216 NA
BRANCH  16  18
ATOM     17  C1  UNL     1      -0.141 -14.664  24.401  0.00  0.00    +0.026 C 
ATOM     18  C2  UNL     1      -1.492 -14.333  23.787  0.00  0.00    +0.128 C 
ENDBRANCH  16  18
ENDBRANCH   1  16
TORSDOF 4
ENDMDL
MODEL 9
REMARK minimizedAffinity -4.25684357
REMARK minimizedRMSD -1
REMARK  Name = /home/tchapet/Post-Doc/ARTICLES-DOSSIERS-DES-ARTICLES-EN-REDACTION/NOUVELS-AXES-DE-RECHERCHE-A-REGARDER-URGEMMENT/ARTICLES-EN-REDACTIONS/ARTICLE_MVOTO/Paper2_Sensors_ActuatorsB/docking_rerun/ligands/17851.pdb
REMARK  7 active torsions:
REMARK  status: ('A' for Active; 'I' for Inactive)
REMARK    1  A    between atoms: C1_1  and  C2_2
REMARK    2  A    between atoms: C2_2  and  N1_3
REMARK    3  A    between atoms: N1_3  and  C3_4
REMARK    4  A    between atoms: N3_7  and  N4_8
REMARK    5  A    between atoms: N8_13  and  C6_14
REMARK    6  A    between atoms: C6_14  and  C7_15
REMARK    7  A    between atoms: C6_14  and  C8_16
REMARK                            x       y       z     vdW  Elec       q    Type
REMARK                         _______ _______ _______ _____ _____    ______ ____
ROOT
ATOM      1  C3  UNL     1      12.516 -13.946  -0.707  0.00  0.00    +0.241 A 
ATOM      2  N2  UNL     1      11.158 -13.921  -0.694  0.00  0.00    -0.178 NA
ATOM      3  C4  UNL     1      10.453 -15.082  -0.716  0.00  0.00    +0.252 A 
ATOM      4  N3  UNL     1       9.025 -15.061  -0.702  0.00  0.00    -0.126 N 
ATOM      5  N6  UNL     1      11.111 -16.267  -0.750  0.00  0.00    -0.179 NA
ATOM      6  C5  UNL     1      12.470 -16.301  -0.762  0.00  0.00    +0.221 A 
ATOM      7  N7  UNL     1      13.166 -15.136  -0.741  0.00  0.00    -0.180 NA
ATOM      8  N8  UNL     1      13.180 -17.549  -0.798  0.00  0.00    -0.311 N 
ATOM      9  H6  UNL     1       8.491 -15.959  -0.719  0.00  0.00    +0.193 HD
ATOM     10  H7  UNL     1      14.224 -17.508  -0.807  0.00  0.00    +0.149 HD
ENDROOT
BRANCH   8  11
ATOM     11  C6  UNL     1      12.559 -18.880  -0.825  0.00  0.00    +0.067 C 
ATOM     12  C7  UNL     1      12.709 -19.540  -2.200  0.00  0.00    +0.027 C 
ATOM     13  C8  UNL     1      13.100 -19.772   0.299  0.00  0.00    +0.027 C 
ENDBRANCH   8  11
BRANCH   4  14
ATOM     14  N4  UNL     1       8.346 -13.886  -0.668  0.00  0.00    -0.126 NA
ATOM     15  N5  UNL     1       7.786 -12.916  -0.640  0.00  0.00    -0.017 NA
ENDBRANCH   4  14
BRANCH   1  16
ATOM     16  N1  UNL     1      13.268 -12.732  -0.684  0.00  0.00    -0.216 NA
BRANCH  16  18
ATOM     17  C1  UNL     1      15.472 -11.757  -1.039  0.00  0.00    +0.026 C 
ATOM     18  C2  UNL     1      14.260 -12.397  -1.698  0.00  0.00    +0.128 C 
ENDBRANCH  16  18
ENDBRANCH   1  16
TORSDOF 4
ENDMDL
