MODEL 1
REMARK minimizedAffinity -6.49834585
REMARK minimizedRMSD -1
REMARK  Name = /home/tchapet/Post-Doc/ARTICLES-DOSSIERS-DES-ARTICLES-EN-REDACTION/NOUVELS-AXES-DE-RECHERCHE-A-REGARDER-URGEMMENT/ARTICLES-EN-REDACTIONS/ARTICLE_MVOTO/Paper2_JCIM/docking_rerun/ligands/18506.pdb
REMARK  6 active torsions:
REMARK  status: ('A' for Active; 'I' for Inactive)
REMARK    1  A    between atoms: C1_1  and  C2_2
REMARK    2  A    between atoms: C2_2  and  C3_3
REMARK    3  A    between atoms: C3_3  and  C4_4
REMARK    4  A    between atoms: C4_4  and  N1_5
REMARK    5  A    between atoms: C9_12  and  N2_13
REMARK    6  A    between atoms: C12_16  and  N3_17
REMARK                            x       y       z     vdW  Elec       q    Type
REMARK                         _______ _______ _______ _____ _____    ______ ____
ROOT
ATOM      1  N1  UNL     1       6.628  12.727  17.473  0.00  0.00    -0.275 N 
ATOM      2  C5  UNL     1       5.767  12.600  18.507  0.00  0.00    +0.264 A 
ATOM      3  O1  UNL     1       5.028  11.594  18.680  0.00  0.00    -0.267 OA
ATOM      4  C6  UNL     1       5.845  13.706  19.344  0.00  0.00    +0.075 A 
ATOM      5  C7  UNL     1       6.801  14.531  18.810  0.00  0.00    +0.075 A 
ATOM      6  C8  UNL     1       7.271  13.901  17.666  0.00  0.00    +0.264 A 
ATOM      7  O2  UNL     1       8.184  14.327  16.909  0.00  0.00    -0.267 OA
ATOM      8  C9  UNL     1       7.206  15.708  19.446  0.00  0.00    +0.050 A 
ATOM      9  C10 UNL     1       6.545  16.085  20.661  0.00  0.00    +0.056 A 
ATOM     10  C11 UNL     1       5.540  15.215  21.224  0.00  0.00    +0.056 A 
ATOM     11  C12 UNL     1       5.217  13.986  20.560  0.00  0.00    +0.050 A 
ATOM     12  C13 UNL     1       4.860  15.622  22.405  0.00  0.00    +0.196 A 
ATOM     13  O3  UNL     1       3.914  14.930  22.872  0.00  0.00    -0.287 OA
ATOM     14  C14 UNL     1       5.204  16.818  23.061  0.00  0.00    +0.033 A 
ATOM     15  C15 UNL     1       6.187  17.668  22.510  0.00  0.00    +0.033 A 
ATOM     16  C16 UNL     1       6.824  17.322  21.305  0.00  0.00    +0.196 A 
ATOM     17  O4  UNL     1       7.629  18.146  20.790  0.00  0.00    -0.287 OA
ATOM     18  C17 UNL     1       6.504  18.876  23.172  0.00  0.00    +0.012 A 
ATOM     19  C18 UNL     1       5.861  19.227  24.360  0.00  0.00    +0.001 A 
ATOM     20  C19 UNL     1       4.891  18.387  24.902  0.00  0.00    +0.001 A 
ATOM     21  C20 UNL     1       4.561  17.193  24.261  0.00  0.00    +0.012 A 
ENDROOT
BRANCH   8  22
ATOM     22  N2  UNL     1       8.294  16.462  18.894  0.00  0.00    -0.357 N 
ATOM     23  H10 UNL     1       8.398  16.581  17.864  0.00  0.00    +0.142 HD
ATOM     24  H11 UNL     1       9.086  16.776  19.499  0.00  0.00    +0.142 HD
ENDBRANCH   8  22
BRANCH  11  25
ATOM     25  N3  UNL     1       4.318  13.020  21.122  0.00  0.00    -0.357 N 
ATOM     26  H12 UNL     1       3.661  12.481  20.518  0.00  0.00    +0.142 HD
ATOM     27  H13 UNL     1       4.407  12.725  22.121  0.00  0.00    +0.142 HD
ENDBRANCH  11  25
BRANCH   1  28
ATOM     28  C4  UNL     1       6.883  11.751  16.410  0.00  0.00    +0.128 C 
BRANCH  28  29
ATOM     29  C3  UNL     1       5.872  11.898  15.265  0.00  0.00    +0.021 C 
BRANCH  29  31
ATOM     30  C1  UNL     1       5.552  14.219  14.328  0.00  0.00    +0.004 C 
ATOM     31  C2  UNL     1       6.332  12.914  14.211  0.00  0.00    -0.002 C 
ENDBRANCH  29  31
ENDBRANCH  28  29
ENDBRANCH   1  28
TORSDOF 5
ENDMDL
MODEL 2
REMARK minimizedAffinity -6.24211311
REMARK minimizedRMSD -1
REMARK  Name = /home/tchapet/Post-Doc/ARTICLES-DOSSIERS-DES-ARTICLES-EN-REDACTION/NOUVELS-AXES-DE-RECHERCHE-A-REGARDER-URGEMMENT/ARTICLES-EN-REDACTIONS/ARTICLE_MVOTO/Paper2_JCIM/docking_rerun/ligands/18506.pdb
REMARK  6 active torsions:
REMARK  status: ('A' for Active; 'I' for Inactive)
REMARK    1  A    between atoms: C1_1  and  C2_2
REMARK    2  A    between atoms: C2_2  and  C3_3
REMARK    3  A    between atoms: C3_3  and  C4_4
REMARK    4  A    between atoms: C4_4  and  N1_5
REMARK    5  A    between atoms: C9_12  and  N2_13
REMARK    6  A    between atoms: C12_16  and  N3_17
REMARK                            x       y       z     vdW  Elec       q    Type
REMARK                         _______ _______ _______ _____ _____    ______ ____
ROOT
ATOM      1  N1  UNL     1       6.633  12.542  17.228  0.00  0.00    -0.275 N 
ATOM      2  C5  UNL     1       7.217  13.755  17.343  0.00  0.00    +0.264 A 
ATOM      3  O1  UNL     1       7.970  14.254  16.464  0.00  0.00    -0.267 OA
ATOM      4  C6  UNL     1       6.842  14.364  18.534  0.00  0.00    +0.075 A 
ATOM      5  C7  UNL     1       5.986  13.496  19.162  0.00  0.00    +0.075 A 
ATOM      6  C8  UNL     1       5.869  12.389  18.332  0.00  0.00    +0.264 A 
ATOM      7  O2  UNL     1       5.141  11.382  18.542  0.00  0.00    -0.267 OA
ATOM      8  C9  UNL     1       5.339  13.825  20.356  0.00  0.00    +0.050 A 
ATOM      9  C10 UNL     1       5.643  15.086  20.968  0.00  0.00    +0.056 A 
ATOM     10  C11 UNL     1       6.543  15.999  20.307  0.00  0.00    +0.056 A 
ATOM     11  C12 UNL     1       7.122  15.634  19.047  0.00  0.00    +0.050 A 
ATOM     12  C13 UNL     1       6.871  17.227  20.946  0.00  0.00    +0.196 A 
ATOM     13  O3  UNL     1       7.724  18.006  20.440  0.00  0.00    -0.287 OA
ATOM     14  C14 UNL     1       6.277  17.586  22.169  0.00  0.00    +0.033 A 
ATOM     15  C15 UNL     1       5.396  16.692  22.816  0.00  0.00    +0.033 A 
ATOM     16  C16 UNL     1       5.112  15.441  22.239  0.00  0.00    +0.196 A 
ATOM     17  O4  UNL     1       4.395  14.628  22.885  0.00  0.00    -0.287 OA
ATOM     18  C17 UNL     1       4.826  17.061  24.055  0.00  0.00    +0.012 A 
ATOM     19  C18 UNL     1       5.122  18.295  24.635  0.00  0.00    +0.001 A 
ATOM     20  C19 UNL     1       5.991  19.176  23.997  0.00  0.00    +0.001 A 
ATOM     21  C20 UNL     1       6.567  18.828  22.776  0.00  0.00    +0.012 A 
ENDROOT
BRANCH   8  22
ATOM     22  N2  UNL     1       4.364  12.921  20.896  0.00  0.00    -0.357 N 
ATOM     23  H10 UNL     1       4.511  11.890  20.863  0.00  0.00    +0.142 HD
ATOM     24  H11 UNL     1       3.424  13.266  21.191  0.00  0.00    +0.142 HD
ENDBRANCH   8  22
BRANCH  11  25
ATOM     25  N3  UNL     1       7.928  16.536  18.278  0.00  0.00    -0.357 N 
ATOM     26  H12 UNL     1       8.757  16.196  17.744  0.00  0.00    +0.142 HD
ATOM     27  H13 UNL     1       7.617  17.520  18.111  0.00  0.00    +0.142 HD
ENDBRANCH  11  25
BRANCH   1  28
ATOM     28  C4  UNL     1       6.734  11.617  16.095  0.00  0.00    +0.128 C 
BRANCH  28  29
ATOM     29  C3  UNL     1       5.773  12.012  14.966  0.00  0.00    +0.021 C 
BRANCH  29  31
ATOM     30  C1  UNL     1       3.328  12.147  15.580  0.00  0.00    +0.004 C 
ATOM     31  C2  UNL     1       4.442  11.253  15.045  0.00  0.00    -0.002 C 
ENDBRANCH  29  31
ENDBRANCH  28  29
ENDBRANCH   1  28
TORSDOF 5
ENDMDL
MODEL 3
REMARK minimizedAffinity -5.94599056
REMARK minimizedRMSD -1
REMARK  Name = /home/tchapet/Post-Doc/ARTICLES-DOSSIERS-DES-ARTICLES-EN-REDACTION/NOUVELS-AXES-DE-RECHERCHE-A-REGARDER-URGEMMENT/ARTICLES-EN-REDACTIONS/ARTICLE_MVOTO/Paper2_JCIM/docking_rerun/ligands/18506.pdb
REMARK  6 active torsions:
REMARK  status: ('A' for Active; 'I' for Inactive)
REMARK    1  A    between atoms: C1_1  and  C2_2
REMARK    2  A    between atoms: C2_2  and  C3_3
REMARK    3  A    between atoms: C3_3  and  C4_4
REMARK    4  A    between atoms: C4_4  and  N1_5
REMARK    5  A    between atoms: C9_12  and  N2_13
REMARK    6  A    between atoms: C12_16  and  N3_17
REMARK                            x       y       z     vdW  Elec       q    Type
REMARK                         _______ _______ _______ _____ _____    ______ ____
ROOT
ATOM      1  N1  UNL     1       5.676  -5.480  32.929  0.00  0.00    -0.275 N 
ATOM      2  C5  UNL     1       5.320  -6.742  33.258  0.00  0.00    +0.264 A 
ATOM      3  O1  UNL     1       4.934  -7.599  32.419  0.00  0.00    -0.267 OA
ATOM      4  C6  UNL     1       5.474  -6.951  34.623  0.00  0.00    +0.075 A 
ATOM      5  C7  UNL     1       5.955  -5.777  35.144  0.00  0.00    +0.075 A 
ATOM      6  C8  UNL     1       6.077  -4.895  34.079  0.00  0.00    +0.264 A 
ATOM      7  O2  UNL     1       6.522  -3.717  34.143  0.00  0.00    -0.267 OA
ATOM      8  C9  UNL     1       6.312  -5.654  36.489  0.00  0.00    +0.050 A 
ATOM      9  C10 UNL     1       6.098  -6.777  37.354  0.00  0.00    +0.056 A 
ATOM     10  C11 UNL     1       5.593  -8.012  36.805  0.00  0.00    +0.056 A 
ATOM     11  C12 UNL     1       5.311  -8.099  35.402  0.00  0.00    +0.050 A 
ATOM     12  C13 UNL     1       5.343  -9.104  37.682  0.00  0.00    +0.196 A 
ATOM     13  O3  UNL     1       4.816 -10.166  37.250  0.00  0.00    -0.287 OA
ATOM     14  C14 UNL     1       5.648  -9.016  39.052  0.00  0.00    +0.033 A 
ATOM     15  C15 UNL     1       6.143  -7.808  39.589  0.00  0.00    +0.033 A 
ATOM     16  C16 UNL     1       6.331  -6.690  38.755  0.00  0.00    +0.196 A 
ATOM     17  O4  UNL     1       6.685  -5.599  39.280  0.00  0.00    -0.287 OA
ATOM     18  C17 UNL     1       6.423  -7.731  40.972  0.00  0.00    +0.012 A 
ATOM     19  C18 UNL     1       6.221  -8.834  41.801  0.00  0.00    +0.001 A 
ATOM     20  C19 UNL     1       5.732 -10.026  41.271  0.00  0.00    +0.001 A 
ATOM     21  C20 UNL     1       5.445 -10.120  39.909  0.00  0.00    +0.012 A 
ENDROOT
BRANCH   8  22
ATOM     22  N2  UNL     1       6.922  -4.437  36.942  0.00  0.00    -0.357 N 
ATOM     23  H10 UNL     1       6.599  -3.511  36.591  0.00  0.00    +0.142 HD
ATOM     24  H11 UNL     1       7.798  -4.459  37.511  0.00  0.00    +0.142 HD
ENDBRANCH   8  22
BRANCH  11  25
ATOM     25  N3  UNL     1       4.920  -9.325  34.768  0.00  0.00    -0.357 N 
ATOM     26  H12 UNL     1       4.214  -9.333  34.001  0.00  0.00    +0.142 HD
ATOM     27  H13 UNL     1       5.443 -10.211  34.953  0.00  0.00    +0.142 HD
ENDBRANCH  11  25
BRANCH   1  28
ATOM     28  C4  UNL     1       5.708  -4.892  31.587  0.00  0.00    +0.128 C 
BRANCH  28  29
ATOM     29  C3  UNL     1       6.903  -5.414  30.779  0.00  0.00    +0.021 C 
BRANCH  29  31
ATOM     30  C1  UNL     1       7.665  -6.656  28.718  0.00  0.00    +0.004 C 
ATOM     31  C2  UNL     1       6.465  -6.247  29.567  0.00  0.00    -0.002 C 
ENDBRANCH  29  31
ENDBRANCH  28  29
ENDBRANCH   1  28
TORSDOF 5
ENDMDL
MODEL 4
REMARK minimizedAffinity -5.93129778
REMARK minimizedRMSD -1
REMARK  Name = /home/tchapet/Post-Doc/ARTICLES-DOSSIERS-DES-ARTICLES-EN-REDACTION/NOUVELS-AXES-DE-RECHERCHE-A-REGARDER-URGEMMENT/ARTICLES-EN-REDACTIONS/ARTICLE_MVOTO/Paper2_JCIM/docking_rerun/ligands/18506.pdb
REMARK  6 active torsions:
REMARK  status: ('A' for Active; 'I' for Inactive)
REMARK    1  A    between atoms: C1_1  and  C2_2
REMARK    2  A    between atoms: C2_2  and  C3_3
REMARK    3  A    between atoms: C3_3  and  C4_4
REMARK    4  A    between atoms: C4_4  and  N1_5
REMARK    5  A    between atoms: C9_12  and  N2_13
REMARK    6  A    between atoms: C12_16  and  N3_17
REMARK                            x       y       z     vdW  Elec       q    Type
REMARK                         _______ _______ _______ _____ _____    ______ ____
ROOT
ATOM      1  N1  UNL     1       7.094  17.749  22.763  0.00  0.00    -0.275 N 
ATOM      2  C5  UNL     1       6.159  16.775  22.709  0.00  0.00    +0.264 A 
ATOM      3  O1  UNL     1       5.288  16.594  23.601  0.00  0.00    -0.267 OA
ATOM      4  C6  UNL     1       6.285  16.044  21.534  0.00  0.00    +0.075 A 
ATOM      5  C7  UNL     1       7.326  16.603  20.839  0.00  0.00    +0.075 A 
ATOM      6  C8  UNL     1       7.798  17.654  21.613  0.00  0.00    +0.264 A 
ATOM      7  O2  UNL     1       8.732  18.440  21.301  0.00  0.00    -0.267 OA
ATOM      8  C9  UNL     1       7.680  16.171  19.558  0.00  0.00    +0.050 A 
ATOM      9  C10 UNL     1       6.967  15.062  18.995  0.00  0.00    +0.056 A 
ATOM     10  C11 UNL     1       5.871  14.475  19.727  0.00  0.00    +0.056 A 
ATOM     11  C12 UNL     1       5.510  15.008  21.008  0.00  0.00    +0.050 A 
ATOM     12  C13 UNL     1       5.202  13.346  19.177  0.00  0.00    +0.196 A 
ATOM     13  O3  UNL     1       4.301  12.752  19.831  0.00  0.00    -0.287 OA
ATOM     14  C14 UNL     1       5.547  12.848  17.908  0.00  0.00    +0.033 A 
ATOM     15  C15 UNL     1       6.619  13.423  17.191  0.00  0.00    +0.033 A 
ATOM     16  C16 UNL     1       7.343  14.494  17.746  0.00  0.00    +0.196 A 
ATOM     17  O4  UNL     1       8.354  14.925  17.123  0.00  0.00    -0.287 OA
ATOM     18  C17 UNL     1       6.966  12.895  15.928  0.00  0.00    +0.012 A 
ATOM     19  C18 UNL     1       6.258  11.822  15.385  0.00  0.00    +0.001 A 
ATOM     20  C19 UNL     1       5.201  11.256  16.093  0.00  0.00    +0.001 A 
ATOM     21  C20 UNL     1       4.846  11.759  17.344  0.00  0.00    +0.012 A 
ENDROOT
BRANCH   8  22
ATOM     22  N2  UNL     1       8.699  16.878  18.837  0.00  0.00    -0.357 N 
ATOM     23  H10 UNL     1       9.550  17.236  19.322  0.00  0.00    +0.142 HD
ATOM     24  H11 UNL     1       8.540  17.184  17.851  0.00  0.00    +0.142 HD
ENDBRANCH   8  22
BRANCH  11  25
ATOM     25  N3  UNL     1       4.361  14.553  21.736  0.00  0.00    -0.357 N 
ATOM     26  H12 UNL     1       4.383  14.465  22.775  0.00  0.00    +0.142 HD
ATOM     27  H13 UNL     1       3.436  14.448  21.262  0.00  0.00    +0.142 HD
ENDBRANCH  11  25
BRANCH   1  28
ATOM     28  C4  UNL     1       7.255  18.763  23.809  0.00  0.00    +0.128 C 
BRANCH  28  29
ATOM     29  C3  UNL     1       8.377  18.383  24.785  0.00  0.00    +0.021 C 
BRANCH  29  31
ATOM     30  C1  UNL     1       9.251  19.881  26.619  0.00  0.00    +0.004 C 
ATOM     31  C2  UNL     1       8.131  18.936  26.195  0.00  0.00    -0.002 C 
ENDBRANCH  29  31
ENDBRANCH  28  29
ENDBRANCH   1  28
TORSDOF 5
ENDMDL
MODEL 5
REMARK minimizedAffinity -5.91963148
REMARK minimizedRMSD -1
REMARK  Name = /home/tchapet/Post-Doc/ARTICLES-DOSSIERS-DES-ARTICLES-EN-REDACTION/NOUVELS-AXES-DE-RECHERCHE-A-REGARDER-URGEMMENT/ARTICLES-EN-REDACTIONS/ARTICLE_MVOTO/Paper2_JCIM/docking_rerun/ligands/18506.pdb
REMARK  6 active torsions:
REMARK  status: ('A' for Active; 'I' for Inactive)
REMARK    1  A    between atoms: C1_1  and  C2_2
REMARK    2  A    between atoms: C2_2  and  C3_3
REMARK    3  A    between atoms: C3_3  and  C4_4
REMARK    4  A    between atoms: C4_4  and  N1_5
REMARK    5  A    between atoms: C9_12  and  N2_13
REMARK    6  A    between atoms: C12_16  and  N3_17
REMARK                            x       y       z     vdW  Elec       q    Type
REMARK                         _______ _______ _______ _____ _____    ______ ____
ROOT
ATOM      1  N1  UNL     1      36.398  14.694  27.190  0.00  0.00    -0.275 N 
ATOM      2  C5  UNL     1      35.503  14.084  27.998  0.00  0.00    +0.264 A 
ATOM      3  O1  UNL     1      34.805  14.694  28.852  0.00  0.00    -0.267 OA
ATOM      4  C6  UNL     1      35.449  12.723  27.724  0.00  0.00    +0.075 A 
ATOM      5  C7  UNL     1      36.335  12.497  26.702  0.00  0.00    +0.075 A 
ATOM      6  C8  UNL     1      36.896  13.727  26.389  0.00  0.00    +0.264 A 
ATOM      7  O2  UNL     1      37.735  13.944  25.473  0.00  0.00    -0.267 OA
ATOM      8  C9  UNL     1      36.477  11.240  26.108  0.00  0.00    +0.050 A 
ATOM      9  C10 UNL     1      35.717  10.148  26.640  0.00  0.00    +0.056 A 
ATOM     10  C11 UNL     1      34.784  10.387  27.715  0.00  0.00    +0.056 A 
ATOM     11  C12 UNL     1      34.631  11.713  28.237  0.00  0.00    +0.050 A 
ATOM     12  C13 UNL     1      34.069   9.286  28.263  0.00  0.00    +0.196 A 
ATOM     13  O3  UNL     1      33.315   9.444  29.263  0.00  0.00    -0.287 OA
ATOM     14  C14 UNL     1      34.208   7.994  27.726  0.00  0.00    +0.033 A 
ATOM     15  C15 UNL     1      35.120   7.760  26.674  0.00  0.00    +0.033 A 
ATOM     16  C16 UNL     1      35.891   8.819  26.162  0.00  0.00    +0.196 A 
ATOM     17  O4  UNL     1      36.763   8.561  25.287  0.00  0.00    -0.287 OA
ATOM     18  C17 UNL     1      35.262   6.451  26.162  0.00  0.00    +0.012 A 
ATOM     19  C18 UNL     1      34.508   5.398  26.681  0.00  0.00    +0.001 A 
ATOM     20  C19 UNL     1      33.609   5.629  27.719  0.00  0.00    +0.001 A 
ATOM     21  C20 UNL     1      33.458   6.913  28.241  0.00  0.00    +0.012 A 
ENDROOT
BRANCH   8  22
ATOM     22  N2  UNL     1      37.331  11.100  24.964  0.00  0.00    -0.357 N 
ATOM     23  H10 UNL     1      38.240  11.607  24.907  0.00  0.00    +0.142 HD
ATOM     24  H11 UNL     1      36.994  10.614  24.103  0.00  0.00    +0.142 HD
ENDBRANCH   8  22
BRANCH  11  25
ATOM     25  N3  UNL     1      33.642  12.046  29.220  0.00  0.00    -0.357 N 
ATOM     26  H12 UNL     1      33.845  12.733  29.978  0.00  0.00    +0.142 HD
ATOM     27  H13 UNL     1      32.653  11.726  29.111  0.00  0.00    +0.142 HD
ENDBRANCH  11  25
BRANCH   1  28
ATOM     28  C4  UNL     1      36.702  16.127  27.131  0.00  0.00    +0.128 C 
BRANCH  28  29
ATOM     29  C3  UNL     1      37.833  16.497  28.099  0.00  0.00    +0.021 C 
BRANCH  29  31
ATOM     30  C1  UNL     1      39.996  15.208  27.925  0.00  0.00    +0.004 C 
ATOM     31  C2  UNL     1      39.215  16.422  27.434  0.00  0.00    -0.002 C 
ENDBRANCH  29  31
ENDBRANCH  28  29
ENDBRANCH   1  28
TORSDOF 5
ENDMDL
MODEL 6
REMARK minimizedAffinity -5.91422081
REMARK minimizedRMSD -1
REMARK  Name = /home/tchapet/Post-Doc/ARTICLES-DOSSIERS-DES-ARTICLES-EN-REDACTION/NOUVELS-AXES-DE-RECHERCHE-A-REGARDER-URGEMMENT/ARTICLES-EN-REDACTIONS/ARTICLE_MVOTO/Paper2_JCIM/docking_rerun/ligands/18506.pdb
REMARK  6 active torsions:
REMARK  status: ('A' for Active; 'I' for Inactive)
REMARK    1  A    between atoms: C1_1  and  C2_2
REMARK    2  A    between atoms: C2_2  and  C3_3
REMARK    3  A    between atoms: C3_3  and  C4_4
REMARK    4  A    between atoms: C4_4  and  N1_5
REMARK    5  A    between atoms: C9_12  and  N2_13
REMARK    6  A    between atoms: C12_16  and  N3_17
REMARK                            x       y       z     vdW  Elec       q    Type
REMARK                         _______ _______ _______ _____ _____    ______ ____
ROOT
ATOM      1  N1  UNL     1       7.329  18.840  22.985  0.00  0.00    -0.275 N 
ATOM      2  C5  UNL     1       7.948  18.655  21.799  0.00  0.00    +0.264 A 
ATOM      3  O1  UNL     1       8.851  19.414  21.356  0.00  0.00    -0.267 OA
ATOM      4  C6  UNL     1       7.471  17.509  21.175  0.00  0.00    +0.075 A 
ATOM      5  C7  UNL     1       6.536  16.967  22.019  0.00  0.00    +0.075 A 
ATOM      6  C8  UNL     1       6.476  17.801  23.127  0.00  0.00    +0.264 A 
ATOM      7  O2  UNL     1       5.757  17.625  24.147  0.00  0.00    -0.267 OA
ATOM      8  C9  UNL     1       5.908  15.749  21.748  0.00  0.00    +0.050 A 
ATOM      9  C10 UNL     1       6.210  15.090  20.511  0.00  0.00    +0.056 A 
ATOM     10  C11 UNL     1       7.195  15.659  19.624  0.00  0.00    +0.056 A 
ATOM     11  C12 UNL     1       7.857  16.877  19.990  0.00  0.00    +0.050 A 
ATOM     12  C13 UNL     1       7.452  15.019  18.380  0.00  0.00    +0.196 A 
ATOM     13  O3  UNL     1       8.238  15.540  17.541  0.00  0.00    -0.287 OA
ATOM     14  C14 UNL     1       6.816  13.812  18.043  0.00  0.00    +0.033 A 
ATOM     15  C15 UNL     1       5.853  13.254  18.911  0.00  0.00    +0.033 A 
ATOM     16  C16 UNL     1       5.528  13.906  20.115  0.00  0.00    +0.196 A 
ATOM     17  O4  UNL     1       4.598  13.433  20.824  0.00  0.00    -0.287 OA
ATOM     18  C17 UNL     1       5.207  12.052  18.545  0.00  0.00    +0.012 A 
ATOM     19  C18 UNL     1       5.518  11.414  17.344  0.00  0.00    +0.001 A 
ATOM     20  C19 UNL     1       6.468  11.964  16.487  0.00  0.00    +0.001 A 
ATOM     21  C20 UNL     1       7.112  13.153  16.828  0.00  0.00    +0.012 A 
ENDROOT
BRANCH   8  22
ATOM     22  N2  UNL     1       5.031  15.180  22.731  0.00  0.00    -0.357 N 
ATOM     23  H10 UNL     1       4.383  15.780  23.284  0.00  0.00    +0.142 HD
ATOM     24  H11 UNL     1       5.131  14.182  23.021  0.00  0.00    +0.142 HD
ENDBRANCH   8  22
BRANCH  11  25
ATOM     25  N3  UNL     1       8.927  17.436  19.216  0.00  0.00    -0.357 N 
ATOM     26  H12 UNL     1       9.023  18.467  19.097  0.00  0.00    +0.142 HD
ATOM     27  H13 UNL     1       9.716  16.836  18.885  0.00  0.00    +0.142 HD
ENDBRANCH  11  25
BRANCH   1  28
ATOM     28  C4  UNL     1       7.592  19.900  23.963  0.00  0.00    +0.128 C 
BRANCH  28  29
ATOM     29  C3  UNL     1       8.684  19.483  24.957  0.00  0.00    +0.021 C 
BRANCH  29  31
ATOM     30  C1  UNL     1       8.834  19.861  27.448  0.00  0.00    +0.004 C 
ATOM     31  C2  UNL     1       8.109  19.117  26.331  0.00  0.00    -0.002 C 
ENDBRANCH  29  31
ENDBRANCH  28  29
ENDBRANCH   1  28
TORSDOF 5
ENDMDL
MODEL 7
REMARK minimizedAffinity -5.89907932
REMARK minimizedRMSD -1
REMARK  Name = /home/tchapet/Post-Doc/ARTICLES-DOSSIERS-DES-ARTICLES-EN-REDACTION/NOUVELS-AXES-DE-RECHERCHE-A-REGARDER-URGEMMENT/ARTICLES-EN-REDACTIONS/ARTICLE_MVOTO/Paper2_JCIM/docking_rerun/ligands/18506.pdb
REMARK  6 active torsions:
REMARK  status: ('A' for Active; 'I' for Inactive)
REMARK    1  A    between atoms: C1_1  and  C2_2
REMARK    2  A    between atoms: C2_2  and  C3_3
REMARK    3  A    between atoms: C3_3  and  C4_4
REMARK    4  A    between atoms: C4_4  and  N1_5
REMARK    5  A    between atoms: C9_12  and  N2_13
REMARK    6  A    between atoms: C12_16  and  N3_17
REMARK                            x       y       z     vdW  Elec       q    Type
REMARK                         _______ _______ _______ _____ _____    ______ ____
ROOT
ATOM      1  N1  UNL     1       6.112  -5.922  37.327  0.00  0.00    -0.275 N 
ATOM      2  C5  UNL     1       6.278  -5.095  36.271  0.00  0.00    +0.264 A 
ATOM      3  O1  UNL     1       6.747  -3.929  36.364  0.00  0.00    -0.267 OA
ATOM      4  C6  UNL     1       5.891  -5.725  35.094  0.00  0.00    +0.075 A 
ATOM      5  C7  UNL     1       5.488  -6.988  35.444  0.00  0.00    +0.075 A 
ATOM      6  C8  UNL     1       5.643  -7.084  36.820  0.00  0.00    +0.264 A 
ATOM      7  O2  UNL     1       5.412  -8.106  37.521  0.00  0.00    -0.267 OA
ATOM      8  C9  UNL     1       5.112  -7.938  34.491  0.00  0.00    +0.050 A 
ATOM      9  C10 UNL     1       5.086  -7.544  33.113  0.00  0.00    +0.056 A 
ATOM     10  C11 UNL     1       5.512  -6.215  32.745  0.00  0.00    +0.056 A 
ATOM     11  C12 UNL     1       5.953  -5.306  33.763  0.00  0.00    +0.050 A 
ATOM     12  C13 UNL     1       5.438  -5.821  31.380  0.00  0.00    +0.196 A 
ATOM     13  O3  UNL     1       5.715  -4.639  31.037  0.00  0.00    -0.287 OA
ATOM     14  C14 UNL     1       5.028  -6.729  30.387  0.00  0.00    +0.033 A 
ATOM     15  C15 UNL     1       4.613  -8.029  30.747  0.00  0.00    +0.033 A 
ATOM     16  C16 UNL     1       4.608  -8.419  32.099  0.00  0.00    +0.196 A 
ATOM     17  O4  UNL     1       4.144  -9.554  32.397  0.00  0.00    -0.287 OA
ATOM     18  C17 UNL     1       4.183  -8.920  29.738  0.00  0.00    +0.012 A 
ATOM     19  C18 UNL     1       4.173  -8.528  28.399  0.00  0.00    +0.001 A 
ATOM     20  C19 UNL     1       4.582  -7.245  28.045  0.00  0.00    +0.001 A 
ATOM     21  C20 UNL     1       5.005  -6.350  29.027  0.00  0.00    +0.012 A 
ENDROOT
BRANCH   8  22
ATOM     22  N2  UNL     1       4.819  -9.277  34.915  0.00  0.00    -0.357 N 
ATOM     23  H10 UNL     1       4.297  -9.458  35.799  0.00  0.00    +0.142 HD
ATOM     24  H11 UNL     1       5.252 -10.096  34.433  0.00  0.00    +0.142 HD
ENDBRANCH   8  22
BRANCH  11  25
ATOM     25  N3  UNL     1       6.500  -4.015  33.460  0.00  0.00    -0.357 N 
ATOM     26  H12 UNL     1       6.298  -3.190  34.065  0.00  0.00    +0.142 HD
ATOM     27  H13 UNL     1       7.230  -3.905  32.721  0.00  0.00    +0.142 HD
ENDBRANCH  11  25
BRANCH   1  28
ATOM     28  C4  UNL     1       6.457  -5.649  38.725  0.00  0.00    +0.128 C 
BRANCH  28  29
ATOM     29  C3  UNL     1       5.388  -4.782  39.403  0.00  0.00    +0.021 C 
BRANCH  29  31
ATOM     30  C1  UNL     1       2.961  -5.413  39.110  0.00  0.00    +0.004 C 
ATOM     31  C2  UNL     1       4.221  -5.619  39.946  0.00  0.00    -0.002 C 
ENDBRANCH  29  31
ENDBRANCH  28  29
ENDBRANCH   1  28
TORSDOF 5
ENDMDL
MODEL 8
REMARK minimizedAffinity -5.89678526
REMARK minimizedRMSD -1
REMARK  Name = /home/tchapet/Post-Doc/ARTICLES-DOSSIERS-DES-ARTICLES-EN-REDACTION/NOUVELS-AXES-DE-RECHERCHE-A-REGARDER-URGEMMENT/ARTICLES-EN-REDACTIONS/ARTICLE_MVOTO/Paper2_JCIM/docking_rerun/ligands/18506.pdb
REMARK  6 active torsions:
REMARK  status: ('A' for Active; 'I' for Inactive)
REMARK    1  A    between atoms: C1_1  and  C2_2
REMARK    2  A    between atoms: C2_2  and  C3_3
REMARK    3  A    between atoms: C3_3  and  C4_4
REMARK    4  A    between atoms: C4_4  and  N1_5
REMARK    5  A    between atoms: C9_12  and  N2_13
REMARK    6  A    between atoms: C12_16  and  N3_17
REMARK                            x       y       z     vdW  Elec       q    Type
REMARK                         _______ _______ _______ _____ _____    ______ ____
ROOT
ATOM      1  N1  UNL     1       4.858  11.627  15.222  0.00  0.00    -0.275 N 
ATOM      2  C5  UNL     1       5.819  12.577  15.247  0.00  0.00    +0.264 A 
ATOM      3  O1  UNL     1       6.518  12.890  14.246  0.00  0.00    -0.267 OA
ATOM      4  C6  UNL     1       5.892  13.162  16.505  0.00  0.00    +0.075 A 
ATOM      5  C7  UNL     1       4.930  12.557  17.271  0.00  0.00    +0.075 A 
ATOM      6  C8  UNL     1       4.305  11.625  16.455  0.00  0.00    +0.264 A 
ATOM      7  O2  UNL     1       3.338  10.885  16.783  0.00  0.00    -0.267 OA
ATOM      8  C9  UNL     1       4.660  12.963  18.581  0.00  0.00    +0.050 A 
ATOM      9  C10 UNL     1       5.469  14.000  19.151  0.00  0.00    +0.056 A 
ATOM     10  C11 UNL     1       6.480  14.638  18.343  0.00  0.00    +0.056 A 
ATOM     11  C12 UNL     1       6.664  14.225  16.983  0.00  0.00    +0.050 A 
ATOM     12  C13 UNL     1       7.306  15.634  18.934  0.00  0.00    +0.196 A 
ATOM     13  O3  UNL     1       8.259  16.146  18.285  0.00  0.00    -0.287 OA
ATOM     14  C14 UNL     1       7.100  16.050  20.262  0.00  0.00    +0.033 A 
ATOM     15  C15 UNL     1       6.110  15.426  21.051  0.00  0.00    +0.033 A 
ATOM     16  C16 UNL     1       5.328  14.388  20.512  0.00  0.00    +0.196 A 
ATOM     17  O4  UNL     1       4.517  13.789  21.270  0.00  0.00    -0.287 OA
ATOM     18  C17 UNL     1       5.933  15.841  22.390  0.00  0.00    +0.012 A 
ATOM     19  C18 UNL     1       6.719  16.860  22.930  0.00  0.00    +0.001 A 
ATOM     20  C19 UNL     1       7.696  17.474  22.151  0.00  0.00    +0.001 A 
ATOM     21  C20 UNL     1       7.890  17.075  20.829  0.00  0.00    +0.012 A 
ENDROOT
BRANCH   8  22
ATOM     22  N2  UNL     1       3.559  12.369  19.284  0.00  0.00    -0.357 N 
ATOM     23  H10 UNL     1       3.350  11.352  19.195  0.00  0.00    +0.142 HD
ATOM     24  H11 UNL     1       2.856  12.966  19.775  0.00  0.00    +0.142 HD
ENDBRANCH   8  22
BRANCH  11  25
ATOM     25  N3  UNL     1       7.566  14.892  16.089  0.00  0.00    -0.357 N 
ATOM     26  H12 UNL     1       8.123  14.357  15.388  0.00  0.00    +0.142 HD
ATOM     27  H13 UNL     1       7.570  15.934  16.015  0.00  0.00    +0.142 HD
ENDBRANCH  11  25
BRANCH   1  28
ATOM     28  C4  UNL     1       4.438  10.827  14.069  0.00  0.00    +0.128 C 
BRANCH  28  29
ATOM     29  C3  UNL     1       3.346  11.542  13.261  0.00  0.00    +0.021 C 
BRANCH  29  31
ATOM     30  C1  UNL     1       4.668  12.324  11.259  0.00  0.00    +0.004 C 
ATOM     31  C2  UNL     1       3.558  11.400  11.748  0.00  0.00    -0.002 C 
ENDBRANCH  29  31
ENDBRANCH  28  29
ENDBRANCH   1  28
TORSDOF 5
ENDMDL
MODEL 9
REMARK minimizedAffinity -5.88278961
REMARK minimizedRMSD -1
REMARK  Name = /home/tchapet/Post-Doc/ARTICLES-DOSSIERS-DES-ARTICLES-EN-REDACTION/NOUVELS-AXES-DE-RECHERCHE-A-REGARDER-URGEMMENT/ARTICLES-EN-REDACTIONS/ARTICLE_MVOTO/Paper2_JCIM/docking_rerun/ligands/18506.pdb
REMARK  6 active torsions:
REMARK  status: ('A' for Active; 'I' for Inactive)
REMARK    1  A    between atoms: C1_1  and  C2_2
REMARK    2  A    between atoms: C2_2  and  C3_3
REMARK    3  A    between atoms: C3_3  and  C4_4
REMARK    4  A    between atoms: C4_4  and  N1_5
REMARK    5  A    between atoms: C9_12  and  N2_13
REMARK    6  A    between atoms: C12_16  and  N3_17
REMARK                            x       y       z     vdW  Elec       q    Type
REMARK                         _______ _______ _______ _____ _____    ______ ____
ROOT
ATOM      1  N1  UNL     1       5.247  -6.274  30.473  0.00  0.00    -0.275 N 
ATOM      2  C5  UNL     1       4.965  -7.328  31.271  0.00  0.00    +0.264 A 
ATOM      3  O1  UNL     1       4.594  -8.451  30.837  0.00  0.00    -0.267 OA
ATOM      4  C6  UNL     1       5.176  -6.999  32.604  0.00  0.00    +0.075 A 
ATOM      5  C7  UNL     1       5.616  -5.701  32.620  0.00  0.00    +0.075 A 
ATOM      6  C8  UNL     1       5.658  -5.284  31.296  0.00  0.00    +0.264 A 
ATOM      7  O2  UNL     1       6.046  -4.156  30.889  0.00  0.00    -0.267 OA
ATOM      8  C9  UNL     1       6.011  -5.065  33.799  0.00  0.00    +0.050 A 
ATOM      9  C10 UNL     1       5.883  -5.783  35.034  0.00  0.00    +0.056 A 
ATOM     10  C11 UNL     1       5.421  -7.150  35.017  0.00  0.00    +0.056 A 
ATOM     11  C12 UNL     1       5.096  -7.771  33.766  0.00  0.00    +0.050 A 
ATOM     12  C13 UNL     1       5.255  -7.836  36.252  0.00  0.00    +0.196 A 
ATOM     13  O3  UNL     1       4.767  -8.999  36.280  0.00  0.00    -0.287 OA
ATOM     14  C14 UNL     1       5.602  -7.225  37.470  0.00  0.00    +0.033 A 
ATOM     15  C15 UNL     1       6.055  -5.888  37.486  0.00  0.00    +0.033 A 
ATOM     16  C16 UNL     1       6.159  -5.165  36.284  0.00  0.00    +0.196 A 
ATOM     17  O4  UNL     1       6.476  -3.945  36.341  0.00  0.00    -0.287 OA
ATOM     18  C17 UNL     1       6.377  -5.284  38.722  0.00  0.00    +0.012 A 
ATOM     19  C18 UNL     1       6.258  -5.997  39.916  0.00  0.00    +0.001 A 
ATOM     20  C19 UNL     1       5.812  -7.316  39.899  0.00  0.00    +0.001 A 
ATOM     21  C20 UNL     1       5.484  -7.928  38.690  0.00  0.00    +0.012 A 
ENDROOT
BRANCH   8  22
ATOM     22  N2  UNL     1       6.576  -3.748  33.729  0.00  0.00    -0.357 N 
ATOM     23  H10 UNL     1       6.195  -3.035  33.071  0.00  0.00    +0.142 HD
ATOM     24  H11 UNL     1       7.470  -3.524  34.219  0.00  0.00    +0.142 HD
ENDBRANCH   8  22
BRANCH  11  25
ATOM     25  N3  UNL     1       4.745  -9.158  33.662  0.00  0.00    -0.357 N 
ATOM     26  H12 UNL     1       4.014  -9.479  32.991  0.00  0.00    +0.142 HD
ATOM     27  H13 UNL     1       5.317  -9.890  34.141  0.00  0.00    +0.142 HD
ENDBRANCH  11  25
BRANCH   1  28
ATOM     28  C4  UNL     1       5.204  -6.238  29.009  0.00  0.00    +0.128 C 
BRANCH  28  29
ATOM     29  C3  UNL     1       6.615  -6.147  28.412  0.00  0.00    +0.021 C 
BRANCH  29  31
ATOM     30  C1  UNL     1       7.757  -7.932  27.040  0.00  0.00    +0.004 C 
ATOM     31  C2  UNL     1       7.346  -7.497  28.443  0.00  0.00    -0.002 C 
ENDBRANCH  29  31
ENDBRANCH  28  29
ENDBRANCH   1  28
TORSDOF 5
ENDMDL
