MODEL 1
REMARK minimizedAffinity -4.4656868
REMARK minimizedRMSD -1
REMARK  Name = /home/tchapet/Post-Doc/ARTICLES-DOSSIERS-DES-ARTICLES-EN-REDACTION/NOUVELS-AXES-DE-RECHERCHE-A-REGARDER-URGEMMENT/ARTICLES-EN-REDACTIONS/ARTICLE_MVOTO/Paper2_Sensors_ActuatorsB/docking_rerun/ligands/20778.pdb
REMARK  7 active torsions:
REMARK  status: ('A' for Active; 'I' for Inactive)
REMARK    1  A    between atoms: N2_2  and  N3_3
REMARK    2  A    between atoms: C2_6  and  N5_7
REMARK    3  A    between atoms: N5_7  and  C3_8
REMARK    4  A    between atoms: C3_8  and  C4_9
REMARK    5  A    between atoms: C3_8  and  C5_10
REMARK    6  A    between atoms: C6_12  and  S1_14
REMARK    7  A    between atoms: S1_14  and  C7_15
REMARK                            x       y       z     vdW  Elec       q    Type
REMARK                         _______ _______ _______ _____ _____    ______ ____
ROOT
ATOM      1  N3  UNL     1       4.356  13.456  21.687  0.00  0.00    -0.126 N 
ATOM      2  C1  UNL     1       5.053  13.478  20.440  0.00  0.00    +0.252 A 
ATOM      3  N4  UNL     1       4.918  12.441  19.573  0.00  0.00    -0.178 NA
ATOM      4  C2  UNL     1       5.575  12.451  18.386  0.00  0.00    +0.240 A 
ATOM      5  N6  UNL     1       6.371  13.504  18.068  0.00  0.00    -0.187 NA
ATOM      6  C6  UNL     1       6.508  14.542  18.929  0.00  0.00    +0.194 A 
ATOM      7  N7  UNL     1       5.850  14.529  20.115  0.00  0.00    -0.187 NA
ATOM      8  H1  UNL     1       3.745  12.644  21.929  0.00  0.00    +0.193 HD
ENDROOT
BRANCH   1  10
ATOM      9  N1  UNL     1       4.572  15.328  23.295  0.00  0.00    -0.017 NA
ATOM     10  N2  UNL     1       4.474  14.481  22.568  0.00  0.00    -0.126 NA
ENDBRANCH   1  10
BRANCH   6  11
ATOM     11  S1  UNL     1       7.554  15.927  18.500  0.00  0.00    -0.089 S 
ATOM     12  C7  UNL     1       8.447  15.001  17.214  0.00  0.00    +0.093 C 
ENDBRANCH   6  11
BRANCH   4  13
ATOM     13  N5  UNL     1       5.413  11.347  17.485  0.00  0.00    -0.213 NA
BRANCH  13  14
ATOM     14  C3  UNL     1       4.623  11.337  16.251  0.00  0.00    +0.091 C 
ATOM     15  C4  UNL     1       3.383  12.228  16.376  0.00  0.00    +0.029 C 
ATOM     16  C5  UNL     1       5.480  11.719  15.040  0.00  0.00    +0.029 C 
ENDBRANCH  13  14
ENDBRANCH   4  13
TORSDOF 4
ENDMDL
MODEL 2
REMARK minimizedAffinity -4.3579607
REMARK minimizedRMSD -1
REMARK  Name = /home/tchapet/Post-Doc/ARTICLES-DOSSIERS-DES-ARTICLES-EN-REDACTION/NOUVELS-AXES-DE-RECHERCHE-A-REGARDER-URGEMMENT/ARTICLES-EN-REDACTIONS/ARTICLE_MVOTO/Paper2_Sensors_ActuatorsB/docking_rerun/ligands/20778.pdb
REMARK  7 active torsions:
REMARK  status: ('A' for Active; 'I' for Inactive)
REMARK    1  A    between atoms: N2_2  and  N3_3
REMARK    2  A    between atoms: C2_6  and  N5_7
REMARK    3  A    between atoms: N5_7  and  C3_8
REMARK    4  A    between atoms: C3_8  and  C4_9
REMARK    5  A    between atoms: C3_8  and  C5_10
REMARK    6  A    between atoms: C6_12  and  S1_14
REMARK    7  A    between atoms: S1_14  and  C7_15
REMARK                            x       y       z     vdW  Elec       q    Type
REMARK                         _______ _______ _______ _____ _____    ______ ____
ROOT
ATOM      1  N3  UNL     1       4.122  13.922  22.044  0.00  0.00    -0.126 N 
ATOM      2  C1  UNL     1       4.956  13.914  20.883  0.00  0.00    +0.252 A 
ATOM      3  N4  UNL     1       4.978  12.822  20.076  0.00  0.00    -0.178 NA
ATOM      4  C2  UNL     1       5.766  12.803  18.971  0.00  0.00    +0.240 A 
ATOM      5  N6  UNL     1       6.532  13.884  18.675  0.00  0.00    -0.187 NA
ATOM      6  C6  UNL     1       6.512  14.977  19.476  0.00  0.00    +0.194 A 
ATOM      7  N7  UNL     1       5.724  14.993  20.581  0.00  0.00    -0.187 NA
ATOM      8  H1  UNL     1       3.535  13.089  22.270  0.00  0.00    +0.193 HD
ENDROOT
BRANCH   1  10
ATOM      9  N1  UNL     1       4.049  15.895  23.540  0.00  0.00    -0.017 NA
ATOM     10  N2  UNL     1       4.082  15.003  22.864  0.00  0.00    -0.126 NA
ENDBRANCH   1  10
BRANCH   6  11
ATOM     11  S1  UNL     1       7.521  16.398  19.076  0.00  0.00    -0.089 S 
ATOM     12  C7  UNL     1       7.846  16.800  20.819  0.00  0.00    +0.093 C 
ENDBRANCH   6  11
BRANCH   4  13
ATOM     13  N5  UNL     1       5.770  11.640  18.132  0.00  0.00    -0.213 NA
BRANCH  13  14
ATOM     14  C3  UNL     1       5.134  11.510  16.818  0.00  0.00    +0.091 C 
ATOM     15  C4  UNL     1       3.861  12.358  16.730  0.00  0.00    +0.029 C 
ATOM     16  C5  UNL     1       6.117  11.838  15.690  0.00  0.00    +0.029 C 
ENDBRANCH  13  14
ENDBRANCH   4  13
TORSDOF 4
ENDMDL
MODEL 3
REMARK minimizedAffinity -4.15554667
REMARK minimizedRMSD -1
REMARK  Name = /home/tchapet/Post-Doc/ARTICLES-DOSSIERS-DES-ARTICLES-EN-REDACTION/NOUVELS-AXES-DE-RECHERCHE-A-REGARDER-URGEMMENT/ARTICLES-EN-REDACTIONS/ARTICLE_MVOTO/Paper2_Sensors_ActuatorsB/docking_rerun/ligands/20778.pdb
REMARK  7 active torsions:
REMARK  status: ('A' for Active; 'I' for Inactive)
REMARK    1  A    between atoms: N2_2  and  N3_3
REMARK    2  A    between atoms: C2_6  and  N5_7
REMARK    3  A    between atoms: N5_7  and  C3_8
REMARK    4  A    between atoms: C3_8  and  C4_9
REMARK    5  A    between atoms: C3_8  and  C5_10
REMARK    6  A    between atoms: C6_12  and  S1_14
REMARK    7  A    between atoms: S1_14  and  C7_15
REMARK                            x       y       z     vdW  Elec       q    Type
REMARK                         _______ _______ _______ _____ _____    ______ ____
ROOT
ATOM      1  N3  UNL     1       6.763  -5.365  38.590  0.00  0.00    -0.126 N 
ATOM      2  C1  UNL     1       5.996  -4.864  37.493  0.00  0.00    +0.252 A 
ATOM      3  N4  UNL     1       6.471  -4.985  36.226  0.00  0.00    -0.178 NA
ATOM      4  C2  UNL     1       5.752  -4.512  35.177  0.00  0.00    +0.240 A 
ATOM      5  N6  UNL     1       4.552  -3.918  35.399  0.00  0.00    -0.187 NA
ATOM      6  C6  UNL     1       4.072  -3.797  36.661  0.00  0.00    +0.194 A 
ATOM      7  N7  UNL     1       4.794  -4.269  37.708  0.00  0.00    -0.187 NA
ATOM      8  H1  UNL     1       7.686  -5.821  38.416  0.00  0.00    +0.193 HD
ENDROOT
BRANCH   1  10
ATOM      9  N1  UNL     1       5.931  -5.170  40.915  0.00  0.00    -0.017 NA
ATOM     10  N2  UNL     1       6.307  -5.258  39.863  0.00  0.00    -0.126 NA
ENDBRANCH   1  10
BRANCH   6  11
ATOM     11  S1  UNL     1       2.488  -3.017  36.944  0.00  0.00    -0.089 S 
ATOM     12  C7  UNL     1       2.409  -3.550  38.681  0.00  0.00    +0.093 C 
ENDBRANCH   6  11
BRANCH   4  13
ATOM     13  N5  UNL     1       6.273  -4.655  33.848  0.00  0.00    -0.213 NA
BRANCH  13  14
ATOM     14  C3  UNL     1       5.606  -5.301  32.714  0.00  0.00    +0.091 C 
ATOM     15  C4  UNL     1       6.452  -5.199  31.441  0.00  0.00    +0.029 C 
ATOM     16  C5  UNL     1       5.236  -6.751  33.039  0.00  0.00    +0.029 C 
ENDBRANCH  13  14
ENDBRANCH   4  13
TORSDOF 4
ENDMDL
MODEL 4
REMARK minimizedAffinity -4.14358473
REMARK minimizedRMSD -1
REMARK  Name = /home/tchapet/Post-Doc/ARTICLES-DOSSIERS-DES-ARTICLES-EN-REDACTION/NOUVELS-AXES-DE-RECHERCHE-A-REGARDER-URGEMMENT/ARTICLES-EN-REDACTIONS/ARTICLE_MVOTO/Paper2_Sensors_ActuatorsB/docking_rerun/ligands/20778.pdb
REMARK  7 active torsions:
REMARK  status: ('A' for Active; 'I' for Inactive)
REMARK    1  A    between atoms: N2_2  and  N3_3
REMARK    2  A    between atoms: C2_6  and  N5_7
REMARK    3  A    between atoms: N5_7  and  C3_8
REMARK    4  A    between atoms: C3_8  and  C4_9
REMARK    5  A    between atoms: C3_8  and  C5_10
REMARK    6  A    between atoms: C6_12  and  S1_14
REMARK    7  A    between atoms: S1_14  and  C7_15
REMARK                            x       y       z     vdW  Elec       q    Type
REMARK                         _______ _______ _______ _____ _____    ______ ____
ROOT
ATOM      1  N3  UNL     1       6.765  -4.576  36.629  0.00  0.00    -0.126 N 
ATOM      2  C1  UNL     1       6.302  -5.248  35.456  0.00  0.00    +0.252 A 
ATOM      3  N4  UNL     1       6.374  -4.629  34.249  0.00  0.00    -0.178 NA
ATOM      4  C2  UNL     1       5.937  -5.258  33.129  0.00  0.00    +0.240 A 
ATOM      5  N6  UNL     1       5.427  -6.513  33.220  0.00  0.00    -0.187 NA
ATOM      6  C6  UNL     1       5.355  -7.137  34.422  0.00  0.00    +0.194 A 
ATOM      7  N7  UNL     1       5.791  -6.505  35.540  0.00  0.00    -0.187 NA
ATOM      8  H1  UNL     1       7.156  -3.610  36.555  0.00  0.00    +0.193 HD
ENDROOT
BRANCH   1  10
ATOM      9  N1  UNL     1       6.656  -5.672  38.847  0.00  0.00    -0.017 NA
ATOM     10  N2  UNL     1       6.705  -5.175  37.844  0.00  0.00    -0.126 NA
ENDBRANCH   1  10
BRANCH   6  11
ATOM     11  S1  UNL     1       4.685  -8.791  34.532  0.00  0.00    -0.089 S 
ATOM     12  C7  UNL     1       4.271  -8.628  36.295  0.00  0.00    +0.093 C 
ENDBRANCH   6  11
BRANCH   4  13
ATOM     13  N5  UNL     1       6.027  -4.586  31.866  0.00  0.00    -0.213 NA
BRANCH  13  14
ATOM     14  C3  UNL     1       6.005  -5.210  30.541  0.00  0.00    +0.091 C 
ATOM     15  C4  UNL     1       5.233  -4.351  29.534  0.00  0.00    +0.029 C 
ATOM     16  C5  UNL     1       7.421  -5.529  30.053  0.00  0.00    +0.029 C 
ENDBRANCH  13  14
ENDBRANCH   4  13
TORSDOF 4
ENDMDL
MODEL 5
REMARK minimizedAffinity -4.02343559
REMARK minimizedRMSD -1
REMARK  Name = /home/tchapet/Post-Doc/ARTICLES-DOSSIERS-DES-ARTICLES-EN-REDACTION/NOUVELS-AXES-DE-RECHERCHE-A-REGARDER-URGEMMENT/ARTICLES-EN-REDACTIONS/ARTICLE_MVOTO/Paper2_Sensors_ActuatorsB/docking_rerun/ligands/20778.pdb
REMARK  7 active torsions:
REMARK  status: ('A' for Active; 'I' for Inactive)
REMARK    1  A    between atoms: N2_2  and  N3_3
REMARK    2  A    between atoms: C2_6  and  N5_7
REMARK    3  A    between atoms: N5_7  and  C3_8
REMARK    4  A    between atoms: C3_8  and  C4_9
REMARK    5  A    between atoms: C3_8  and  C5_10
REMARK    6  A    between atoms: C6_12  and  S1_14
REMARK    7  A    between atoms: S1_14  and  C7_15
REMARK                            x       y       z     vdW  Elec       q    Type
REMARK                         _______ _______ _______ _____ _____    ______ ____
ROOT
ATOM      1  N3  UNL     1       8.166  14.742  17.819  0.00  0.00    -0.126 N 
ATOM      2  C1  UNL     1       6.977  14.021  18.150  0.00  0.00    +0.252 A 
ATOM      3  N4  UNL     1       6.572  13.945  19.445  0.00  0.00    -0.178 NA
ATOM      4  C2  UNL     1       5.445  13.263  19.771  0.00  0.00    +0.240 A 
ATOM      5  N6  UNL     1       4.722  12.656  18.795  0.00  0.00    -0.187 NA
ATOM      6  C6  UNL     1       5.121  12.730  17.502  0.00  0.00    +0.194 A 
ATOM      7  N7  UNL     1       6.248  13.412  17.179  0.00  0.00    -0.187 NA
ATOM      8  H1  UNL     1       8.720  15.207  18.572  0.00  0.00    +0.193 HD
ENDROOT
BRANCH   1  10
ATOM      9  N1  UNL     1       8.937  14.908  15.471  0.00  0.00    -0.017 NA
ATOM     10  N2  UNL     1       8.588  14.834  16.533  0.00  0.00    -0.126 NA
ENDBRANCH   1  10
BRANCH   6  11
ATOM     11  S1  UNL     1       4.160  11.932  16.222  0.00  0.00    -0.089 S 
ATOM     12  C7  UNL     1       5.572  11.806  15.083  0.00  0.00    +0.093 C 
ENDBRANCH   6  11
BRANCH   4  13
ATOM     13  N5  UNL     1       5.036  13.200  21.144  0.00  0.00    -0.213 NA
BRANCH  13  14
ATOM     14  C3  UNL     1       4.490  14.301  21.942  0.00  0.00    +0.091 C 
ATOM     15  C4  UNL     1       5.390  14.616  23.142  0.00  0.00    +0.029 C 
ATOM     16  C5  UNL     1       4.235  15.540  21.080  0.00  0.00    +0.029 C 
ENDBRANCH  13  14
ENDBRANCH   4  13
TORSDOF 4
ENDMDL
MODEL 6
REMARK minimizedAffinity -3.91744995
REMARK minimizedRMSD -1
REMARK  Name = /home/tchapet/Post-Doc/ARTICLES-DOSSIERS-DES-ARTICLES-EN-REDACTION/NOUVELS-AXES-DE-RECHERCHE-A-REGARDER-URGEMMENT/ARTICLES-EN-REDACTIONS/ARTICLE_MVOTO/Paper2_Sensors_ActuatorsB/docking_rerun/ligands/20778.pdb
REMARK  7 active torsions:
REMARK  status: ('A' for Active; 'I' for Inactive)
REMARK    1  A    between atoms: N2_2  and  N3_3
REMARK    2  A    between atoms: C2_6  and  N5_7
REMARK    3  A    between atoms: N5_7  and  C3_8
REMARK    4  A    between atoms: C3_8  and  C4_9
REMARK    5  A    between atoms: C3_8  and  C5_10
REMARK    6  A    between atoms: C6_12  and  S1_14
REMARK    7  A    between atoms: S1_14  and  C7_15
REMARK                            x       y       z     vdW  Elec       q    Type
REMARK                         _______ _______ _______ _____ _____    ______ ____
ROOT
ATOM      1  N3  UNL     1      11.852  20.687  39.150  0.00  0.00    -0.126 N 
ATOM      2  C1  UNL     1      13.033  21.410  38.798  0.00  0.00    +0.252 A 
ATOM      3  N4  UNL     1      14.223  21.076  39.362  0.00  0.00    -0.178 NA
ATOM      4  C2  UNL     1      15.351  21.755  39.037  0.00  0.00    +0.240 A 
ATOM      5  N6  UNL     1      15.286  22.773  38.141  0.00  0.00    -0.187 NA
ATOM      6  C6  UNL     1      14.102  23.110  37.573  0.00  0.00    +0.194 A 
ATOM      7  N7  UNL     1      12.976  22.429  37.902  0.00  0.00    -0.187 NA
ATOM      8  H1  UNL     1      11.905  19.905  39.840  0.00  0.00    +0.193 HD
ENDROOT
BRANCH   1  10
ATOM      9  N1  UNL     1       9.664  21.261  38.140  0.00  0.00    -0.017 NA
ATOM     10  N2  UNL     1      10.654  21.002  38.597  0.00  0.00    -0.126 NA
ENDBRANCH   1  10
BRANCH   6  11
ATOM     11  S1  UNL     1      14.026  24.449  36.390  0.00  0.00    -0.089 S 
ATOM     12  C7  UNL     1      12.421  23.918  35.721  0.00  0.00    +0.093 C 
ENDBRANCH   6  11
BRANCH   4  13
ATOM     13  N5  UNL     1      16.596  21.380  39.642  0.00  0.00    -0.213 NA
BRANCH  13  14
ATOM     14  C3  UNL     1      16.880  21.305  41.078  0.00  0.00    +0.091 C 
ATOM     15  C4  UNL     1      16.722  19.874  41.601  0.00  0.00    +0.029 C 
ATOM     16  C5  UNL     1      18.261  21.882  41.402  0.00  0.00    +0.029 C 
ENDBRANCH  13  14
ENDBRANCH   4  13
TORSDOF 4
ENDMDL
MODEL 7
REMARK minimizedAffinity -3.90753126
REMARK minimizedRMSD -1
REMARK  Name = /home/tchapet/Post-Doc/ARTICLES-DOSSIERS-DES-ARTICLES-EN-REDACTION/NOUVELS-AXES-DE-RECHERCHE-A-REGARDER-URGEMMENT/ARTICLES-EN-REDACTIONS/ARTICLE_MVOTO/Paper2_Sensors_ActuatorsB/docking_rerun/ligands/20778.pdb
REMARK  7 active torsions:
REMARK  status: ('A' for Active; 'I' for Inactive)
REMARK    1  A    between atoms: N2_2  and  N3_3
REMARK    2  A    between atoms: C2_6  and  N5_7
REMARK    3  A    between atoms: N5_7  and  C3_8
REMARK    4  A    between atoms: C3_8  and  C4_9
REMARK    5  A    between atoms: C3_8  and  C5_10
REMARK    6  A    between atoms: C6_12  and  S1_14
REMARK    7  A    between atoms: S1_14  and  C7_15
REMARK                            x       y       z     vdW  Elec       q    Type
REMARK                         _______ _______ _______ _____ _____    ______ ____
ROOT
ATOM      1  N3  UNL     1       6.600  -3.893  33.880  0.00  0.00    -0.126 N 
ATOM      2  C1  UNL     1       6.124  -4.886  32.969  0.00  0.00    +0.252 A 
ATOM      3  N4  UNL     1       6.172  -4.654  31.632  0.00  0.00    -0.178 NA
ATOM      4  C2  UNL     1       5.723  -5.589  30.757  0.00  0.00    +0.240 A 
ATOM      5  N6  UNL     1       5.225  -6.762  31.226  0.00  0.00    -0.187 NA
ATOM      6  C6  UNL     1       5.177  -7.000  32.560  0.00  0.00    +0.194 A 
ATOM      7  N7  UNL     1       5.625  -6.062  33.432  0.00  0.00    -0.187 NA
ATOM      8  H1  UNL     1       6.982  -2.992  33.517  0.00  0.00    +0.193 HD
ENDROOT
BRANCH   1  10
ATOM      9  N1  UNL     1       6.534  -4.279  36.326  0.00  0.00    -0.017 NA
ATOM     10  N2  UNL     1       6.564  -4.105  35.220  0.00  0.00    -0.126 NA
ENDBRANCH   1  10
BRANCH   6  11
ATOM     11  S1  UNL     1       4.523  -8.549  33.169  0.00  0.00    -0.089 S 
ATOM     12  C7  UNL     1       4.224  -9.208  31.500  0.00  0.00    +0.093 C 
ENDBRANCH   6  11
BRANCH   4  13
ATOM     13  N5  UNL     1       5.788  -5.322  29.350  0.00  0.00    -0.213 NA
BRANCH  13  14
ATOM     14  C3  UNL     1       6.077  -6.292  28.290  0.00  0.00    +0.091 C 
ATOM     15  C4  UNL     1       5.682  -5.746  26.914  0.00  0.00    +0.029 C 
ATOM     16  C5  UNL     1       7.541  -6.739  28.329  0.00  0.00    +0.029 C 
ENDBRANCH  13  14
ENDBRANCH   4  13
TORSDOF 4
ENDMDL
MODEL 8
REMARK minimizedAffinity -3.90188241
REMARK minimizedRMSD -1
REMARK  Name = /home/tchapet/Post-Doc/ARTICLES-DOSSIERS-DES-ARTICLES-EN-REDACTION/NOUVELS-AXES-DE-RECHERCHE-A-REGARDER-URGEMMENT/ARTICLES-EN-REDACTIONS/ARTICLE_MVOTO/Paper2_Sensors_ActuatorsB/docking_rerun/ligands/20778.pdb
REMARK  7 active torsions:
REMARK  status: ('A' for Active; 'I' for Inactive)
REMARK    1  A    between atoms: N2_2  and  N3_3
REMARK    2  A    between atoms: C2_6  and  N5_7
REMARK    3  A    between atoms: N5_7  and  C3_8
REMARK    4  A    between atoms: C3_8  and  C4_9
REMARK    5  A    between atoms: C3_8  and  C5_10
REMARK    6  A    between atoms: C6_12  and  S1_14
REMARK    7  A    between atoms: S1_14  and  C7_15
REMARK                            x       y       z     vdW  Elec       q    Type
REMARK                         _______ _______ _______ _____ _____    ______ ____
ROOT
ATOM      1  N3  UNL     1       6.194  -4.290  32.396  0.00  0.00    -0.126 N 
ATOM      2  C1  UNL     1       5.981  -5.193  33.483  0.00  0.00    +0.252 A 
ATOM      3  N4  UNL     1       6.260  -4.800  34.753  0.00  0.00    -0.178 NA
ATOM      4  C2  UNL     1       6.062  -5.648  35.792  0.00  0.00    +0.240 A 
ATOM      5  N6  UNL     1       5.581  -6.896  35.558  0.00  0.00    -0.187 NA
ATOM      6  C6  UNL     1       5.298  -7.293  34.293  0.00  0.00    +0.194 A 
ATOM      7  N7  UNL     1       5.498  -6.443  33.255  0.00  0.00    -0.187 NA
ATOM      8  H1  UNL     1       6.565  -3.332  32.580  0.00  0.00    +0.193 HD
ENDROOT
BRANCH   1  10
ATOM      9  N1  UNL     1       5.692  -4.966  30.066  0.00  0.00    -0.017 NA
ATOM     10  N2  UNL     1       5.919  -4.661  31.120  0.00  0.00    -0.126 NA
ENDBRANCH   1  10
BRANCH   6  11
ATOM     11  S1  UNL     1       4.660  -8.937  33.994  0.00  0.00    -0.089 S 
ATOM     12  C7  UNL     1       5.745  -9.707  35.234  0.00  0.00    +0.093 C 
ENDBRANCH   6  11
BRANCH   4  13
ATOM     13  N5  UNL     1       6.360  -5.208  37.124  0.00  0.00    -0.213 NA
BRANCH  13  14
ATOM     14  C3  UNL     1       5.405  -5.042  38.223  0.00  0.00    +0.091 C 
ATOM     15  C4  UNL     1       6.064  -5.316  39.578  0.00  0.00    +0.029 C 
ATOM     16  C5  UNL     1       4.742  -3.662  38.179  0.00  0.00    +0.029 C 
ENDBRANCH  13  14
ENDBRANCH   4  13
TORSDOF 4
ENDMDL
MODEL 9
REMARK minimizedAffinity -3.89608979
REMARK minimizedRMSD -1
REMARK  Name = /home/tchapet/Post-Doc/ARTICLES-DOSSIERS-DES-ARTICLES-EN-REDACTION/NOUVELS-AXES-DE-RECHERCHE-A-REGARDER-URGEMMENT/ARTICLES-EN-REDACTIONS/ARTICLE_MVOTO/Paper2_Sensors_ActuatorsB/docking_rerun/ligands/20778.pdb
REMARK  7 active torsions:
REMARK  status: ('A' for Active; 'I' for Inactive)
REMARK    1  A    between atoms: N2_2  and  N3_3
REMARK    2  A    between atoms: C2_6  and  N5_7
REMARK    3  A    between atoms: N5_7  and  C3_8
REMARK    4  A    between atoms: C3_8  and  C4_9
REMARK    5  A    between atoms: C3_8  and  C5_10
REMARK    6  A    between atoms: C6_12  and  S1_14
REMARK    7  A    between atoms: S1_14  and  C7_15
REMARK                            x       y       z     vdW  Elec       q    Type
REMARK                         _______ _______ _______ _____ _____    ______ ____
ROOT
ATOM      1  N3  UNL     1       8.784  16.399  16.562  0.00  0.00    -0.126 N 
ATOM      2  C1  UNL     1       8.083  15.992  17.740  0.00  0.00    +0.252 A 
ATOM      3  N4  UNL     1       8.096  16.786  18.842  0.00  0.00    -0.178 NA
ATOM      4  C2  UNL     1       7.435  16.409  19.965  0.00  0.00    +0.240 A 
ATOM      5  N6  UNL     1       6.757  15.233  19.983  0.00  0.00    -0.187 NA
ATOM      6  C6  UNL     1       6.739  14.438  18.885  0.00  0.00    +0.194 A 
ATOM      7  N7  UNL     1       7.403  14.816  17.763  0.00  0.00    -0.187 NA
ATOM      8  H1  UNL     1       9.305  17.304  16.553  0.00  0.00    +0.193 HD
ENDROOT
BRANCH   1  10
ATOM      9  N1  UNL     1       8.782  14.984  14.530  0.00  0.00    -0.017 NA
ATOM     10  N2  UNL     1       8.783  15.624  15.449  0.00  0.00    -0.126 NA
ENDBRANCH   1  10
BRANCH   6  11
ATOM     11  S1  UNL     1       5.841  12.892  18.915  0.00  0.00    -0.089 S 
ATOM     12  C7  UNL     1       5.101  13.223  20.543  0.00  0.00    +0.093 C 
ENDBRANCH   6  11
BRANCH   4  13
ATOM     13  N5  UNL     1       7.460  17.266  21.114  0.00  0.00    -0.213 NA
BRANCH  13  14
ATOM     14  C3  UNL     1       7.938  16.916  22.454  0.00  0.00    +0.091 C 
ATOM     15  C4  UNL     1       9.469  16.914  22.516  0.00  0.00    +0.029 C 
ATOM     16  C5  UNL     1       7.325  17.830  23.520  0.00  0.00    +0.029 C 
ENDBRANCH  13  14
ENDBRANCH   4  13
TORSDOF 4
ENDMDL
