MODEL 1
REMARK minimizedAffinity -4.38924742
REMARK minimizedRMSD -1
REMARK  Name = /home/tchapet/Post-Doc/ARTICLES-DOSSIERS-DES-ARTICLES-EN-REDACTION/NOUVELS-AXES-DE-RECHERCHE-A-REGARDER-URGEMMENT/ARTICLES-EN-REDACTIONS/ARTICLE_MVOTO/Paper2_Sensors_ActuatorsB/docking_rerun/ligands/20778.pdb
REMARK  7 active torsions:
REMARK  status: ('A' for Active; 'I' for Inactive)
REMARK    1  A    between atoms: N2_2  and  N3_3
REMARK    2  A    between atoms: C2_6  and  N5_7
REMARK    3  A    between atoms: N5_7  and  C3_8
REMARK    4  A    between atoms: C3_8  and  C4_9
REMARK    5  A    between atoms: C3_8  and  C5_10
REMARK    6  A    between atoms: C6_12  and  S1_14
REMARK    7  A    between atoms: S1_14  and  C7_15
REMARK                            x       y       z     vdW  Elec       q    Type
REMARK                         _______ _______ _______ _____ _____    ______ ____
ROOT
ATOM      1  N3  UNL     1      13.532 -17.566   0.252  0.00  0.00    -0.126 N 
ATOM      2  C1  UNL     1      12.709 -16.609  -0.419  0.00  0.00    +0.252 A 
ATOM      3  N4  UNL     1      12.985 -15.284  -0.306  0.00  0.00    -0.178 NA
ATOM      4  C2  UNL     1      12.210 -14.367  -0.939  0.00  0.00    +0.240 A 
ATOM      5  N6  UNL     1      11.156 -14.781  -1.688  0.00  0.00    -0.187 NA
ATOM      6  C6  UNL     1      10.878 -16.102  -1.805  0.00  0.00    +0.194 A 
ATOM      7  N7  UNL     1      11.653 -17.017  -1.171  0.00  0.00    -0.187 NA
ATOM      8  H1  UNL     1      14.341 -17.244   0.828  0.00  0.00    +0.193 HD
ENDROOT
BRANCH   1  10
ATOM      9  N1  UNL     1      13.067 -19.992   0.070  0.00  0.00    -0.017 NA
ATOM     10  N2  UNL     1      13.277 -18.894   0.152  0.00  0.00    -0.126 NA
ENDBRANCH   1  10
BRANCH   6  11
ATOM     11  S1  UNL     1       9.490 -16.639  -2.797  0.00  0.00    -0.089 S 
ATOM     12  C7  UNL     1      10.093 -18.351  -2.917  0.00  0.00    +0.093 C 
ENDBRANCH   6  11
BRANCH   4  13
ATOM     13  N5  UNL     1      12.524 -12.974  -0.808  0.00  0.00    -0.213 NA
BRANCH  13  14
ATOM     14  C3  UNL     1      13.570 -12.243  -1.529  0.00  0.00    +0.091 C 
ATOM     15  C4  UNL     1      14.824 -12.074  -0.666  0.00  0.00    +0.029 C 
ATOM     16  C5  UNL     1      13.886 -12.907  -2.873  0.00  0.00    +0.029 C 
ENDBRANCH  13  14
ENDBRANCH   4  13
TORSDOF 4
ENDMDL
MODEL 2
REMARK minimizedAffinity -4.258811
REMARK minimizedRMSD -1
REMARK  Name = /home/tchapet/Post-Doc/ARTICLES-DOSSIERS-DES-ARTICLES-EN-REDACTION/NOUVELS-AXES-DE-RECHERCHE-A-REGARDER-URGEMMENT/ARTICLES-EN-REDACTIONS/ARTICLE_MVOTO/Paper2_Sensors_ActuatorsB/docking_rerun/ligands/20778.pdb
REMARK  7 active torsions:
REMARK  status: ('A' for Active; 'I' for Inactive)
REMARK    1  A    between atoms: N2_2  and  N3_3
REMARK    2  A    between atoms: C2_6  and  N5_7
REMARK    3  A    between atoms: N5_7  and  C3_8
REMARK    4  A    between atoms: C3_8  and  C4_9
REMARK    5  A    between atoms: C3_8  and  C5_10
REMARK    6  A    between atoms: C6_12  and  S1_14
REMARK    7  A    between atoms: S1_14  and  C7_15
REMARK                            x       y       z     vdW  Elec       q    Type
REMARK                         _______ _______ _______ _____ _____    ______ ____
ROOT
ATOM      1  N3  UNL     1      13.840   0.611   3.814  0.00  0.00    -0.126 N 
ATOM      2  C1  UNL     1      12.996   0.844   2.684  0.00  0.00    +0.252 A 
ATOM      3  N4  UNL     1      13.318   1.814   1.789  0.00  0.00    -0.178 NA
ATOM      4  C2  UNL     1      12.524   2.044   0.713  0.00  0.00    +0.240 A 
ATOM      5  N6  UNL     1      11.404   1.298   0.534  0.00  0.00    -0.187 NA
ATOM      6  C6  UNL     1      11.079   0.327   1.423  0.00  0.00    +0.194 A 
ATOM      7  N7  UNL     1      11.874   0.101   2.499  0.00  0.00    -0.187 NA
ATOM      8  H1  UNL     1      14.700   1.187   3.949  0.00  0.00    +0.193 HD
ENDROOT
BRANCH   1  10
ATOM      9  N1  UNL     1      13.291  -1.149   5.468  0.00  0.00    -0.017 NA
ATOM     10  N2  UNL     1      13.540  -0.353   4.719  0.00  0.00    -0.126 NA
ENDBRANCH   1  10
BRANCH   6  11
ATOM     11  S1  UNL     1       9.604  -0.653   1.177  0.00  0.00    -0.089 S 
ATOM     12  C7  UNL     1      10.451  -1.867   0.121  0.00  0.00    +0.093 C 
ENDBRANCH   6  11
BRANCH   4  13
ATOM     13  N5  UNL     1      12.887   3.070  -0.220  0.00  0.00    -0.213 NA
BRANCH  13  14
ATOM     14  C3  UNL     1      13.829   2.942  -1.335  0.00  0.00    +0.091 C 
ATOM     15  C4  UNL     1      15.278   2.923  -0.839  0.00  0.00    +0.029 C 
ATOM     16  C5  UNL     1      13.505   1.719  -2.199  0.00  0.00    +0.029 C 
ENDBRANCH  13  14
ENDBRANCH   4  13
TORSDOF 4
ENDMDL
MODEL 3
REMARK minimizedAffinity -4.23310328
REMARK minimizedRMSD -1
REMARK  Name = /home/tchapet/Post-Doc/ARTICLES-DOSSIERS-DES-ARTICLES-EN-REDACTION/NOUVELS-AXES-DE-RECHERCHE-A-REGARDER-URGEMMENT/ARTICLES-EN-REDACTIONS/ARTICLE_MVOTO/Paper2_Sensors_ActuatorsB/docking_rerun/ligands/20778.pdb
REMARK  7 active torsions:
REMARK  status: ('A' for Active; 'I' for Inactive)
REMARK    1  A    between atoms: N2_2  and  N3_3
REMARK    2  A    between atoms: C2_6  and  N5_7
REMARK    3  A    between atoms: N5_7  and  C3_8
REMARK    4  A    between atoms: C3_8  and  C4_9
REMARK    5  A    between atoms: C3_8  and  C5_10
REMARK    6  A    between atoms: C6_12  and  S1_14
REMARK    7  A    between atoms: S1_14  and  C7_15
REMARK                            x       y       z     vdW  Elec       q    Type
REMARK                         _______ _______ _______ _____ _____    ______ ____
ROOT
ATOM      1  N3  UNL     1       1.610 -16.026  14.379  0.00  0.00    -0.126 N 
ATOM      2  C1  UNL     1       0.410 -15.257  14.270  0.00  0.00    +0.252 A 
ATOM      3  N4  UNL     1       0.301 -14.078  14.936  0.00  0.00    -0.178 NA
ATOM      4  C2  UNL     1      -0.833 -13.340  14.841  0.00  0.00    +0.240 A 
ATOM      5  N6  UNL     1      -1.862 -13.785  14.074  0.00  0.00    -0.187 NA
ATOM      6  C6  UNL     1      -1.757 -14.960  13.406  0.00  0.00    +0.194 A 
ATOM      7  N7  UNL     1      -0.622 -15.696  13.504  0.00  0.00    -0.187 NA
ATOM      8  H1  UNL     1       2.398 -15.681  14.970  0.00  0.00    +0.193 HD
ENDROOT
BRANCH   1  10
ATOM      9  N1  UNL     1       1.851 -18.179  13.178  0.00  0.00    -0.017 NA
ATOM     10  N2  UNL     1       1.742 -17.205  13.721  0.00  0.00    -0.126 NA
ENDBRANCH   1  10
BRANCH   6  11
ATOM     11  S1  UNL     1      -3.115 -15.537  12.395  0.00  0.00    -0.089 S 
ATOM     12  C7  UNL     1      -2.028 -16.054  11.031  0.00  0.00    +0.093 C 
ENDBRANCH   6  11
BRANCH   4  13
ATOM     13  N5  UNL     1      -0.923 -12.096  15.550  0.00  0.00    -0.213 NA
BRANCH  13  14
ATOM     14  C3  UNL     1      -1.678 -11.845  16.780  0.00  0.00    +0.091 C 
ATOM     15  C4  UNL     1      -0.983 -10.797  17.655  0.00  0.00    +0.029 C 
ATOM     16  C5  UNL     1      -3.129 -11.462  16.473  0.00  0.00    +0.029 C 
ENDBRANCH  13  14
ENDBRANCH   4  13
TORSDOF 4
ENDMDL
MODEL 4
REMARK minimizedAffinity -4.1884613
REMARK minimizedRMSD -1
REMARK  Name = /home/tchapet/Post-Doc/ARTICLES-DOSSIERS-DES-ARTICLES-EN-REDACTION/NOUVELS-AXES-DE-RECHERCHE-A-REGARDER-URGEMMENT/ARTICLES-EN-REDACTIONS/ARTICLE_MVOTO/Paper2_Sensors_ActuatorsB/docking_rerun/ligands/20778.pdb
REMARK  7 active torsions:
REMARK  status: ('A' for Active; 'I' for Inactive)
REMARK    1  A    between atoms: N2_2  and  N3_3
REMARK    2  A    between atoms: C2_6  and  N5_7
REMARK    3  A    between atoms: N5_7  and  C3_8
REMARK    4  A    between atoms: C3_8  and  C4_9
REMARK    5  A    between atoms: C3_8  and  C5_10
REMARK    6  A    between atoms: C6_12  and  S1_14
REMARK    7  A    between atoms: S1_14  and  C7_15
REMARK                            x       y       z     vdW  Elec       q    Type
REMARK                         _______ _______ _______ _____ _____    ______ ____
ROOT
ATOM      1  N3  UNL     1       9.446 -20.890   3.172  0.00  0.00    -0.126 N 
ATOM      2  C1  UNL     1      10.719 -21.100   2.557  0.00  0.00    +0.252 A 
ATOM      3  N4  UNL     1      10.987 -20.539   1.349  0.00  0.00    -0.178 NA
ATOM      4  C2  UNL     1      12.191 -20.732   0.756  0.00  0.00    +0.240 A 
ATOM      5  N6  UNL     1      13.132 -21.489   1.377  0.00  0.00    -0.187 NA
ATOM      6  C6  UNL     1      12.871 -22.049   2.584  0.00  0.00    +0.194 A 
ATOM      7  N7  UNL     1      11.665 -21.856   3.174  0.00  0.00    -0.187 NA
ATOM      8  H1  UNL     1       8.725 -20.308   2.691  0.00  0.00    +0.193 HD
ENDROOT
BRANCH   1  10
ATOM      9  N1  UNL     1       8.920 -21.890   5.376  0.00  0.00    -0.017 NA
ATOM     10  N2  UNL     1       9.158 -21.438   4.379  0.00  0.00    -0.126 NA
ENDBRANCH   1  10
BRANCH   6  11
ATOM     11  S1  UNL     1      14.117 -23.042   3.397  0.00  0.00    -0.089 S 
ATOM     12  C7  UNL     1      15.323 -21.682   3.455  0.00  0.00    +0.093 C 
ENDBRANCH   6  11
BRANCH   4  13
ATOM     13  N5  UNL     1      12.452 -20.126  -0.517  0.00  0.00    -0.213 NA
BRANCH  13  14
ATOM     14  C3  UNL     1      12.573 -18.692  -0.793  0.00  0.00    +0.091 C 
ATOM     15  C4  UNL     1      13.682 -18.056   0.050  0.00  0.00    +0.029 C 
ATOM     16  C5  UNL     1      12.769 -18.428  -2.289  0.00  0.00    +0.029 C 
ENDBRANCH  13  14
ENDBRANCH   4  13
TORSDOF 4
ENDMDL
MODEL 5
REMARK minimizedAffinity -4.18124294
REMARK minimizedRMSD -1
REMARK  Name = /home/tchapet/Post-Doc/ARTICLES-DOSSIERS-DES-ARTICLES-EN-REDACTION/NOUVELS-AXES-DE-RECHERCHE-A-REGARDER-URGEMMENT/ARTICLES-EN-REDACTIONS/ARTICLE_MVOTO/Paper2_Sensors_ActuatorsB/docking_rerun/ligands/20778.pdb
REMARK  7 active torsions:
REMARK  status: ('A' for Active; 'I' for Inactive)
REMARK    1  A    between atoms: N2_2  and  N3_3
REMARK    2  A    between atoms: C2_6  and  N5_7
REMARK    3  A    between atoms: N5_7  and  C3_8
REMARK    4  A    between atoms: C3_8  and  C4_9
REMARK    5  A    between atoms: C3_8  and  C5_10
REMARK    6  A    between atoms: C6_12  and  S1_14
REMARK    7  A    between atoms: S1_14  and  C7_15
REMARK                            x       y       z     vdW  Elec       q    Type
REMARK                         _______ _______ _______ _____ _____    ______ ____
ROOT
ATOM      1  N3  UNL     1      -0.364 -15.109  12.762  0.00  0.00    -0.126 N 
ATOM      2  C1  UNL     1      -0.466 -14.923  14.175  0.00  0.00    +0.252 A 
ATOM      3  N4  UNL     1      -0.396 -13.671  14.699  0.00  0.00    -0.178 NA
ATOM      4  C2  UNL     1      -0.491 -13.483  16.039  0.00  0.00    +0.240 A 
ATOM      5  N6  UNL     1      -0.658 -14.553  16.857  0.00  0.00    -0.187 NA
ATOM      6  C6  UNL     1      -0.731 -15.804  16.340  0.00  0.00    +0.194 A 
ATOM      7  N7  UNL     1      -0.634 -15.990  15.000  0.00  0.00    -0.187 NA
ATOM      8  H1  UNL     1      -0.234 -14.283  12.136  0.00  0.00    +0.193 HD
ENDROOT
BRANCH   1  10
ATOM      9  N1  UNL     1      -0.491 -17.374  11.768  0.00  0.00    -0.017 NA
ATOM     10  N2  UNL     1      -0.434 -16.349  12.217  0.00  0.00    -0.126 NA
ENDBRANCH   1  10
BRANCH   6  11
ATOM     11  S1  UNL     1      -0.956 -17.208  17.425  0.00  0.00    -0.089 S 
ATOM     12  C7  UNL     1      -0.973 -16.187  18.929  0.00  0.00    +0.093 C 
ENDBRANCH   6  11
BRANCH   4  13
ATOM     13  N5  UNL     1      -0.419 -12.151  16.567  0.00  0.00    -0.213 NA
BRANCH  13  14
ATOM     14  C3  UNL     1      -1.490 -11.425  17.254  0.00  0.00    +0.091 C 
ATOM     15  C4  UNL     1      -1.034 -10.022  17.668  0.00  0.00    +0.029 C 
ATOM     16  C5  UNL     1      -2.765 -11.385  16.406  0.00  0.00    +0.029 C 
ENDBRANCH  13  14
ENDBRANCH   4  13
TORSDOF 4
ENDMDL
MODEL 6
REMARK minimizedAffinity -4.16352177
REMARK minimizedRMSD -1
REMARK  Name = /home/tchapet/Post-Doc/ARTICLES-DOSSIERS-DES-ARTICLES-EN-REDACTION/NOUVELS-AXES-DE-RECHERCHE-A-REGARDER-URGEMMENT/ARTICLES-EN-REDACTIONS/ARTICLE_MVOTO/Paper2_Sensors_ActuatorsB/docking_rerun/ligands/20778.pdb
REMARK  7 active torsions:
REMARK  status: ('A' for Active; 'I' for Inactive)
REMARK    1  A    between atoms: N2_2  and  N3_3
REMARK    2  A    between atoms: C2_6  and  N5_7
REMARK    3  A    between atoms: N5_7  and  C3_8
REMARK    4  A    between atoms: C3_8  and  C4_9
REMARK    5  A    between atoms: C3_8  and  C5_10
REMARK    6  A    between atoms: C6_12  and  S1_14
REMARK    7  A    between atoms: S1_14  and  C7_15
REMARK                            x       y       z     vdW  Elec       q    Type
REMARK                         _______ _______ _______ _____ _____    ______ ____
ROOT
ATOM      1  N3  UNL     1       1.168 -15.972  18.625  0.00  0.00    -0.126 N 
ATOM      2  C1  UNL     1       0.258 -15.082  19.274  0.00  0.00    +0.252 A 
ATOM      3  N4  UNL     1      -0.519 -14.251  18.532  0.00  0.00    -0.178 NA
ATOM      4  C2  UNL     1      -1.386 -13.401  19.137  0.00  0.00    +0.240 A 
ATOM      5  N6  UNL     1      -1.476 -13.386  20.492  0.00  0.00    -0.187 NA
ATOM      6  C6  UNL     1      -0.705 -14.215  21.237  0.00  0.00    +0.194 A 
ATOM      7  N7  UNL     1       0.163 -15.063  20.629  0.00  0.00    -0.187 NA
ATOM      8  H1  UNL     1       1.235 -15.981  17.583  0.00  0.00    +0.193 HD
ENDROOT
BRANCH   1  10
ATOM      9  N1  UNL     1       2.599 -17.508  19.940  0.00  0.00    -0.017 NA
ATOM     10  N2  UNL     1       1.952 -16.813  19.345  0.00  0.00    -0.126 NA
ENDBRANCH   1  10
BRANCH   6  11
ATOM     11  S1  UNL     1      -0.832 -14.192  23.021  0.00  0.00    -0.089 S 
ATOM     12  C7  UNL     1      -0.620 -15.992  23.173  0.00  0.00    +0.093 C 
ENDBRANCH   6  11
BRANCH   4  13
ATOM     13  N5  UNL     1      -2.199 -12.537  18.332  0.00  0.00    -0.213 NA
BRANCH  13  14
ATOM     14  C3  UNL     1      -1.738 -11.665  17.249  0.00  0.00    +0.091 C 
ATOM     15  C4  UNL     1      -2.857 -11.395  16.237  0.00  0.00    +0.029 C 
ATOM     16  C5  UNL     1      -1.139 -10.366  17.797  0.00  0.00    +0.029 C 
ENDBRANCH  13  14
ENDBRANCH   4  13
TORSDOF 4
ENDMDL
MODEL 7
REMARK minimizedAffinity -4.09333515
REMARK minimizedRMSD -1
REMARK  Name = /home/tchapet/Post-Doc/ARTICLES-DOSSIERS-DES-ARTICLES-EN-REDACTION/NOUVELS-AXES-DE-RECHERCHE-A-REGARDER-URGEMMENT/ARTICLES-EN-REDACTIONS/ARTICLE_MVOTO/Paper2_Sensors_ActuatorsB/docking_rerun/ligands/20778.pdb
REMARK  7 active torsions:
REMARK  status: ('A' for Active; 'I' for Inactive)
REMARK    1  A    between atoms: N2_2  and  N3_3
REMARK    2  A    between atoms: C2_6  and  N5_7
REMARK    3  A    between atoms: N5_7  and  C3_8
REMARK    4  A    between atoms: C3_8  and  C4_9
REMARK    5  A    between atoms: C3_8  and  C5_10
REMARK    6  A    between atoms: C6_12  and  S1_14
REMARK    7  A    between atoms: S1_14  and  C7_15
REMARK                            x       y       z     vdW  Elec       q    Type
REMARK                         _______ _______ _______ _____ _____    ______ ____
ROOT
ATOM      1  N3  UNL     1      -1.967   1.586   1.463  0.00  0.00    -0.126 N 
ATOM      2  C1  UNL     1      -1.213   0.396   1.705  0.00  0.00    +0.252 A 
ATOM      3  N4  UNL     1       0.144   0.434   1.648  0.00  0.00    -0.178 NA
ATOM      4  C2  UNL     1       0.870  -0.689   1.875  0.00  0.00    +0.240 A 
ATOM      5  N6  UNL     1       0.234  -1.854   2.162  0.00  0.00    -0.187 NA
ATOM      6  C6  UNL     1      -1.120  -1.896   2.223  0.00  0.00    +0.194 A 
ATOM      7  N7  UNL     1      -1.843  -0.772   1.994  0.00  0.00    -0.187 NA
ATOM      8  H1  UNL     1      -1.475   2.479   1.241  0.00  0.00    +0.193 HD
ENDROOT
BRANCH   1  10
ATOM      9  N1  UNL     1      -4.442   1.561   1.562  0.00  0.00    -0.017 NA
ATOM     10  N2  UNL     1      -3.323   1.573   1.518  0.00  0.00    -0.126 NA
ENDBRANCH   1  10
BRANCH   6  11
ATOM     11  S1  UNL     1      -1.950  -3.433   2.606  0.00  0.00    -0.089 S 
ATOM     12  C7  UNL     1      -3.489  -2.607   3.111  0.00  0.00    +0.093 C 
ENDBRANCH   6  11
BRANCH   4  13
ATOM     13  N5  UNL     1       2.301  -0.624   1.813  0.00  0.00    -0.213 NA
BRANCH  13  14
ATOM     14  C3  UNL     1       3.163  -1.267   0.818  0.00  0.00    +0.091 C 
ATOM     15  C4  UNL     1       3.589  -2.667   1.273  0.00  0.00    +0.029 C 
ATOM     16  C5  UNL     1       2.495  -1.293  -0.560  0.00  0.00    +0.029 C 
ENDBRANCH  13  14
ENDBRANCH   4  13
TORSDOF 4
ENDMDL
MODEL 8
REMARK minimizedAffinity -4.02745819
REMARK minimizedRMSD -1
REMARK  Name = /home/tchapet/Post-Doc/ARTICLES-DOSSIERS-DES-ARTICLES-EN-REDACTION/NOUVELS-AXES-DE-RECHERCHE-A-REGARDER-URGEMMENT/ARTICLES-EN-REDACTIONS/ARTICLE_MVOTO/Paper2_Sensors_ActuatorsB/docking_rerun/ligands/20778.pdb
REMARK  7 active torsions:
REMARK  status: ('A' for Active; 'I' for Inactive)
REMARK    1  A    between atoms: N2_2  and  N3_3
REMARK    2  A    between atoms: C2_6  and  N5_7
REMARK    3  A    between atoms: N5_7  and  C3_8
REMARK    4  A    between atoms: C3_8  and  C4_9
REMARK    5  A    between atoms: C3_8  and  C5_10
REMARK    6  A    between atoms: C6_12  and  S1_14
REMARK    7  A    between atoms: S1_14  and  C7_15
REMARK                            x       y       z     vdW  Elec       q    Type
REMARK                         _______ _______ _______ _____ _____    ______ ____
ROOT
ATOM      1  N3  UNL     1      10.073  -0.019   3.048  0.00  0.00    -0.126 N 
ATOM      2  C1  UNL     1       9.622  -0.845   1.972  0.00  0.00    +0.252 A 
ATOM      3  N4  UNL     1       8.439  -1.503   2.076  0.00  0.00    -0.178 NA
ATOM      4  C2  UNL     1       8.001  -2.290   1.061  0.00  0.00    +0.240 A 
ATOM      5  N6  UNL     1       8.753  -2.416  -0.063  0.00  0.00    -0.187 NA
ATOM      6  C6  UNL     1       9.934  -1.760  -0.172  0.00  0.00    +0.194 A 
ATOM      7  N7  UNL     1      10.369  -0.975   0.845  0.00  0.00    -0.187 NA
ATOM      8  H1  UNL     1       9.493   0.075   3.911  0.00  0.00    +0.193 HD
ENDROOT
BRANCH   1  10
ATOM      9  N1  UNL     1      12.223   1.202   2.897  0.00  0.00    -0.017 NA
ATOM     10  N2  UNL     1      11.251   0.649   2.965  0.00  0.00    -0.126 NA
ENDBRANCH   1  10
BRANCH   6  11
ATOM     11  S1  UNL     1      10.915  -1.929  -1.658  0.00  0.00    -0.089 S 
ATOM     12  C7  UNL     1      11.311  -3.674  -1.334  0.00  0.00    +0.093 C 
ENDBRANCH   6  11
BRANCH   4  13
ATOM     13  N5  UNL     1       6.746  -2.971   1.192  0.00  0.00    -0.213 NA
BRANCH  13  14
ATOM     14  C3  UNL     1       5.545  -2.752   0.382  0.00  0.00    +0.091 C 
ATOM     15  C4  UNL     1       4.288  -3.248   1.104  0.00  0.00    +0.029 C 
ATOM     16  C5  UNL     1       5.419  -1.285  -0.041  0.00  0.00    +0.029 C 
ENDBRANCH  13  14
ENDBRANCH   4  13
TORSDOF 4
ENDMDL
MODEL 9
REMARK minimizedAffinity -4.02543831
REMARK minimizedRMSD -1
REMARK  Name = /home/tchapet/Post-Doc/ARTICLES-DOSSIERS-DES-ARTICLES-EN-REDACTION/NOUVELS-AXES-DE-RECHERCHE-A-REGARDER-URGEMMENT/ARTICLES-EN-REDACTIONS/ARTICLE_MVOTO/Paper2_Sensors_ActuatorsB/docking_rerun/ligands/20778.pdb
REMARK  7 active torsions:
REMARK  status: ('A' for Active; 'I' for Inactive)
REMARK    1  A    between atoms: N2_2  and  N3_3
REMARK    2  A    between atoms: C2_6  and  N5_7
REMARK    3  A    between atoms: N5_7  and  C3_8
REMARK    4  A    between atoms: C3_8  and  C4_9
REMARK    5  A    between atoms: C3_8  and  C5_10
REMARK    6  A    between atoms: C6_12  and  S1_14
REMARK    7  A    between atoms: S1_14  and  C7_15
REMARK                            x       y       z     vdW  Elec       q    Type
REMARK                         _______ _______ _______ _____ _____    ______ ____
ROOT
ATOM      1  N3  UNL     1       9.150 -14.149  -0.366  0.00  0.00    -0.126 N 
ATOM      2  C1  UNL     1      10.568 -14.224  -0.526  0.00  0.00    +0.252 A 
ATOM      3  N4  UNL     1      11.234 -15.342  -0.138  0.00  0.00    -0.178 NA
ATOM      4  C2  UNL     1      12.580 -15.424  -0.285  0.00  0.00    +0.240 A 
ATOM      5  N6  UNL     1      13.261 -14.380  -0.825  0.00  0.00    -0.187 NA
ATOM      6  C6  UNL     1      12.601 -13.263  -1.216  0.00  0.00    +0.194 A 
ATOM      7  N7  UNL     1      11.255 -13.183  -1.066  0.00  0.00    -0.187 NA
ATOM      8  H1  UNL     1       8.630 -14.953   0.050  0.00  0.00    +0.193 HD
ENDROOT
BRANCH   1  10
ATOM      9  N1  UNL     1       7.898 -12.130  -1.065  0.00  0.00    -0.017 NA
ATOM     10  N2  UNL     1       8.464 -13.043  -0.748  0.00  0.00    -0.126 NA
ENDBRANCH   1  10
BRANCH   6  11
ATOM     11  S1  UNL     1      13.505 -11.894  -1.930  0.00  0.00    -0.089 S 
ATOM     12  C7  UNL     1      14.857 -12.009  -0.719  0.00  0.00    +0.093 C 
ENDBRANCH   6  11
BRANCH   4  13
ATOM     13  N5  UNL     1      13.260 -16.617   0.127  0.00  0.00    -0.213 NA
BRANCH  13  14
ATOM     14  C3  UNL     1      13.498 -17.812  -0.686  0.00  0.00    +0.091 C 
ATOM     15  C4  UNL     1      13.242 -19.091   0.118  0.00  0.00    +0.029 C 
ATOM     16  C5  UNL     1      12.678 -17.777  -1.979  0.00  0.00    +0.029 C 
ENDBRANCH  13  14
ENDBRANCH   4  13
TORSDOF 4
ENDMDL
