MODEL 1
REMARK minimizedAffinity -5.90055752
REMARK minimizedRMSD -1
REMARK  Name = /home/tchapet/Post-Doc/ARTICLES-DOSSIERS-DES-ARTICLES-EN-REDACTION/NOUVELS-AXES-DE-RECHERCHE-A-REGARDER-URGEMMENT/ARTICLES-EN-REDACTIONS/ARTICLE_MVOTO/Paper2_Sensors_ActuatorsB/docking_rerun/ligands/4550.pdb
REMARK  4 active torsions:
REMARK  status: ('A' for Active; 'I' for Inactive)
REMARK    1  A    between atoms: N1_2  and  C1_3
REMARK    2  A    between atoms: C4_6  and  N2_7
REMARK    3  A    between atoms: N2_7  and  O2_8
REMARK    4  A    between atoms: N2_7  and  O3_9
REMARK                            x       y       z     vdW  Elec       q    Type
REMARK                         _______ _______ _______ _____ _____    ______ ____
ROOT
ATOM      1  C1  UNL     1     -23.261 -30.016   4.464  0.00  0.00    +0.180 C 
ATOM      2  C2  UNL     1     -22.176 -30.094   3.715  0.00  0.00    +0.034 A 
ATOM      3  C3  UNL     1     -21.220 -29.120   3.458  0.00  0.00    +0.043 A 
ATOM      4  C4  UNL     1     -20.136 -29.434   2.614  0.00  0.00    +0.099 A 
ATOM      5  C5  UNL     1     -20.012 -30.754   2.073  0.00  0.00    -0.014 A 
ATOM      6  C6  UNL     1     -21.029 -31.724   2.330  0.00  0.00    -0.018 A 
ATOM      7  C7  UNL     1     -22.092 -31.365   3.168  0.00  0.00    +0.070 A 
ATOM      8  N3  UNL     1     -23.068 -32.147   3.519  0.00  0.00    -0.174 NA
ATOM      9  C8  UNL     1     -23.869 -31.328   4.365  0.00  0.00    +0.290 C 
ATOM     10  O4  UNL     1     -24.929 -31.708   4.925  0.00  0.00    -0.266 OA
ATOM     11  C9  UNL     1     -20.932 -33.147   1.823  0.00  0.00    +0.037 C 
ATOM     12  C10 UNL     1     -19.921 -33.307   0.689  0.00  0.00    +0.005 C 
ATOM     13  C11 UNL     1     -18.610 -32.621   1.055  0.00  0.00    +0.005 C 
ATOM     14  C12 UNL     1     -18.825 -31.113   1.197  0.00  0.00    +0.038 C 
ENDROOT
BRANCH   1  16
ATOM     15  O1  UNL     1     -23.705 -28.884   6.451  0.00  0.00    -0.143 OA
ATOM     16  N1  UNL     1     -23.711 -28.880   5.203  0.00  0.00    -0.025 NA
ENDBRANCH   1  16
BRANCH   4  17
ATOM     17  N2  UNL     1     -19.176 -28.399   2.321  0.00  0.00    -0.128 N 
BRANCH  17  18
ATOM     18  O2  UNL     1     -18.118 -28.176   3.139  0.00  0.00    -0.262 OA
ATOM     19  H2  UNL     1     -17.405 -28.777   2.802  0.00  0.00    +0.247 HD
ENDBRANCH  17  18
BRANCH  17  20
ATOM     20  O3  UNL     1     -19.290 -27.666   1.187  0.00  0.00    -0.262 OA
ATOM     21  H3  UNL     1     -18.738 -28.144   0.516  0.00  0.00    +0.247 HD
ENDBRANCH  17  20
ENDBRANCH   4  17
TORSDOF 4
ENDMDL
MODEL 2
REMARK minimizedAffinity -5.84727573
REMARK minimizedRMSD -1
REMARK  Name = /home/tchapet/Post-Doc/ARTICLES-DOSSIERS-DES-ARTICLES-EN-REDACTION/NOUVELS-AXES-DE-RECHERCHE-A-REGARDER-URGEMMENT/ARTICLES-EN-REDACTIONS/ARTICLE_MVOTO/Paper2_Sensors_ActuatorsB/docking_rerun/ligands/4550.pdb
REMARK  4 active torsions:
REMARK  status: ('A' for Active; 'I' for Inactive)
REMARK    1  A    between atoms: N1_2  and  C1_3
REMARK    2  A    between atoms: C4_6  and  N2_7
REMARK    3  A    between atoms: N2_7  and  O2_8
REMARK    4  A    between atoms: N2_7  and  O3_9
REMARK                            x       y       z     vdW  Elec       q    Type
REMARK                         _______ _______ _______ _____ _____    ______ ____
ROOT
ATOM      1  C1  UNL     1     -23.132 -32.728   1.967  0.00  0.00    +0.180 C 
ATOM      2  C2  UNL     1     -22.383 -31.701   2.327  0.00  0.00    +0.034 A 
ATOM      3  C3  UNL     1     -22.748 -30.558   3.026  0.00  0.00    +0.043 A 
ATOM      4  C4  UNL     1     -21.768 -29.582   3.297  0.00  0.00    +0.099 A 
ATOM      5  C5  UNL     1     -20.412 -29.801   2.889  0.00  0.00    -0.014 A 
ATOM      6  C6  UNL     1     -20.076 -30.971   2.144  0.00  0.00    -0.018 A 
ATOM      7  C7  UNL     1     -21.085 -31.910   1.891  0.00  0.00    +0.070 A 
ATOM      8  N3  UNL     1     -20.923 -33.034   1.259  0.00  0.00    -0.174 NA
ATOM      9  C8  UNL     1     -22.222 -33.617   1.273  0.00  0.00    +0.290 C 
ATOM     10  O4  UNL     1     -22.507 -34.729   0.756  0.00  0.00    -0.266 OA
ATOM     11  C9  UNL     1     -18.654 -31.280   1.723  0.00  0.00    +0.037 C 
ATOM     12  C10 UNL     1     -17.740 -30.056   1.776  0.00  0.00    +0.005 C 
ATOM     13  C11 UNL     1     -17.919 -29.326   3.102  0.00  0.00    +0.005 C 
ATOM     14  C12 UNL     1     -19.342 -28.774   3.214  0.00  0.00    +0.038 C 
ENDROOT
BRANCH   1  16
ATOM     15  O1  UNL     1     -25.384 -32.376   1.488  0.00  0.00    -0.143 OA
ATOM     16  N1  UNL     1     -24.526 -32.904   2.224  0.00  0.00    -0.025 NA
ENDBRANCH   1  16
BRANCH   4  17
ATOM     17  N2  UNL     1     -22.170 -28.381   3.985  0.00  0.00    -0.128 N 
BRANCH  17  18
ATOM     18  O2  UNL     1     -22.248 -28.343   5.337  0.00  0.00    -0.262 OA
ATOM     19  H2  UNL     1     -21.342 -28.076   5.637  0.00  0.00    +0.247 HD
ENDBRANCH  17  18
BRANCH  17  20
ATOM     20  O3  UNL     1     -22.426 -27.249   3.284  0.00  0.00    -0.262 OA
ATOM     21  H3  UNL     1     -21.565 -26.757   3.267  0.00  0.00    +0.247 HD
ENDBRANCH  17  20
ENDBRANCH   4  17
TORSDOF 4
ENDMDL
MODEL 3
REMARK minimizedAffinity -5.77359867
REMARK minimizedRMSD -1
REMARK  Name = /home/tchapet/Post-Doc/ARTICLES-DOSSIERS-DES-ARTICLES-EN-REDACTION/NOUVELS-AXES-DE-RECHERCHE-A-REGARDER-URGEMMENT/ARTICLES-EN-REDACTIONS/ARTICLE_MVOTO/Paper2_Sensors_ActuatorsB/docking_rerun/ligands/4550.pdb
REMARK  4 active torsions:
REMARK  status: ('A' for Active; 'I' for Inactive)
REMARK    1  A    between atoms: N1_2  and  C1_3
REMARK    2  A    between atoms: C4_6  and  N2_7
REMARK    3  A    between atoms: N2_7  and  O2_8
REMARK    4  A    between atoms: N2_7  and  O3_9
REMARK                            x       y       z     vdW  Elec       q    Type
REMARK                         _______ _______ _______ _____ _____    ______ ____
ROOT
ATOM      1  C1  UNL     1     -17.650 -32.992   0.460  0.00  0.00    +0.180 C 
ATOM      2  C2  UNL     1     -18.443 -32.084   1.000  0.00  0.00    +0.034 A 
ATOM      3  C3  UNL     1     -18.204 -30.732   1.213  0.00  0.00    +0.043 A 
ATOM      4  C4  UNL     1     -19.208 -29.948   1.815  0.00  0.00    +0.099 A 
ATOM      5  C5  UNL     1     -20.467 -30.541   2.157  0.00  0.00    -0.014 A 
ATOM      6  C6  UNL     1     -20.670 -31.940   1.954  0.00  0.00    -0.018 A 
ATOM      7  C7  UNL     1     -19.640 -32.681   1.360  0.00  0.00    +0.070 A 
ATOM      8  N3  UNL     1     -19.692 -33.950   1.082  0.00  0.00    -0.174 NA
ATOM      9  C8  UNL     1     -18.423 -34.217   0.493  0.00  0.00    +0.290 C 
ATOM     10  O4  UNL     1     -18.058 -35.347   0.076  0.00  0.00    -0.266 OA
ATOM     11  C9  UNL     1     -21.992 -32.615   2.254  0.00  0.00    +0.037 C 
ATOM     12  C10 UNL     1     -22.888 -31.786   3.172  0.00  0.00    +0.005 C 
ATOM     13  C11 UNL     1     -22.951 -30.345   2.679  0.00  0.00    +0.005 C 
ATOM     14  C12 UNL     1     -21.569 -29.694   2.767  0.00  0.00    +0.038 C 
ENDROOT
BRANCH   1  16
ATOM     15  O1  UNL     1     -15.335 -32.913   0.697  0.00  0.00    -0.143 OA
ATOM     16  N1  UNL     1     -16.330 -32.786  -0.044  0.00  0.00    -0.025 NA
ENDBRANCH   1  16
BRANCH   4  17
ATOM     17  N2  UNL     1     -18.929 -28.557   2.070  0.00  0.00    -0.128 N 
BRANCH  17  18
ATOM     18  O2  UNL     1     -18.182 -28.178   3.135  0.00  0.00    -0.262 OA
ATOM     19  H2  UNL     1     -17.247 -28.189   2.806  0.00  0.00    +0.247 HD
ENDBRANCH  17  18
BRANCH  17  20
ATOM     20  O3  UNL     1     -19.370 -27.607   1.209  0.00  0.00    -0.262 OA
ATOM     21  H3  UNL     1     -18.623 -27.473   0.571  0.00  0.00    +0.247 HD
ENDBRANCH  17  20
ENDBRANCH   4  17
TORSDOF 4
ENDMDL
MODEL 4
REMARK minimizedAffinity -5.58096886
REMARK minimizedRMSD -1
REMARK  Name = /home/tchapet/Post-Doc/ARTICLES-DOSSIERS-DES-ARTICLES-EN-REDACTION/NOUVELS-AXES-DE-RECHERCHE-A-REGARDER-URGEMMENT/ARTICLES-EN-REDACTIONS/ARTICLE_MVOTO/Paper2_Sensors_ActuatorsB/docking_rerun/ligands/4550.pdb
REMARK  4 active torsions:
REMARK  status: ('A' for Active; 'I' for Inactive)
REMARK    1  A    between atoms: N1_2  and  C1_3
REMARK    2  A    between atoms: C4_6  and  N2_7
REMARK    3  A    between atoms: N2_7  and  O2_8
REMARK    4  A    between atoms: N2_7  and  O3_9
REMARK                            x       y       z     vdW  Elec       q    Type
REMARK                         _______ _______ _______ _____ _____    ______ ____
ROOT
ATOM      1  C1  UNL     1     -21.497 -33.896   1.381  0.00  0.00    +0.180 C 
ATOM      2  C2  UNL     1     -21.584 -32.651   1.814  0.00  0.00    +0.034 A 
ATOM      3  C3  UNL     1     -22.662 -32.006   2.406  0.00  0.00    +0.043 A 
ATOM      4  C4  UNL     1     -22.524 -30.657   2.789  0.00  0.00    +0.099 A 
ATOM      5  C5  UNL     1     -21.271 -29.988   2.604  0.00  0.00    -0.014 A 
ATOM      6  C6  UNL     1     -20.192 -30.669   1.963  0.00  0.00    -0.018 A 
ATOM      7  C7  UNL     1     -20.378 -32.007   1.592  0.00  0.00    +0.070 A 
ATOM      8  N3  UNL     1     -19.480 -32.763   1.035  0.00  0.00    -0.174 NA
ATOM      9  C8  UNL     1     -20.147 -34.010   0.868  0.00  0.00    +0.290 C 
ATOM     10  O4  UNL     1     -19.622 -35.033   0.355  0.00  0.00    -0.266 OA
ATOM     11  C9  UNL     1     -18.831 -30.031   1.779  0.00  0.00    +0.037 C 
ATOM     12  C10 UNL     1     -18.863 -28.510   1.927  0.00  0.00    +0.005 C 
ATOM     13  C11 UNL     1     -19.637 -28.122   3.182  0.00  0.00    +0.005 C 
ATOM     14  C12 UNL     1     -21.101 -28.547   3.053  0.00  0.00    +0.038 C 
ENDROOT
BRANCH   1  16
ATOM     15  O1  UNL     1     -23.173 -35.185   0.404  0.00  0.00    -0.143 OA
ATOM     16  N1  UNL     1     -22.520 -34.892   1.426  0.00  0.00    -0.025 NA
ENDBRANCH   1  16
BRANCH   4  17
ATOM     17  N2  UNL     1     -23.666 -29.988   3.362  0.00  0.00    -0.128 N 
BRANCH  17  18
ATOM     18  O2  UNL     1     -23.883 -30.000   4.700  0.00  0.00    -0.262 OA
ATOM     19  H2  UNL     1     -23.390 -29.212   5.044  0.00  0.00    +0.247 HD
ENDBRANCH  17  18
BRANCH  17  20
ATOM     20  O3  UNL     1     -24.514 -29.289   2.568  0.00  0.00    -0.262 OA
ATOM     21  H3  UNL     1     -24.167 -28.360   2.580  0.00  0.00    +0.247 HD
ENDBRANCH  17  20
ENDBRANCH   4  17
TORSDOF 4
ENDMDL
MODEL 5
REMARK minimizedAffinity -5.57789516
REMARK minimizedRMSD -1
REMARK  Name = /home/tchapet/Post-Doc/ARTICLES-DOSSIERS-DES-ARTICLES-EN-REDACTION/NOUVELS-AXES-DE-RECHERCHE-A-REGARDER-URGEMMENT/ARTICLES-EN-REDACTIONS/ARTICLE_MVOTO/Paper2_Sensors_ActuatorsB/docking_rerun/ligands/4550.pdb
REMARK  4 active torsions:
REMARK  status: ('A' for Active; 'I' for Inactive)
REMARK    1  A    between atoms: N1_2  and  C1_3
REMARK    2  A    between atoms: C4_6  and  N2_7
REMARK    3  A    between atoms: N2_7  and  O2_8
REMARK    4  A    between atoms: N2_7  and  O3_9
REMARK                            x       y       z     vdW  Elec       q    Type
REMARK                         _______ _______ _______ _____ _____    ______ ____
ROOT
ATOM      1  C1  UNL     1      14.771  23.966  22.141  0.00  0.00    +0.180 C 
ATOM      2  C2  UNL     1      13.721  24.704  22.453  0.00  0.00    +0.034 A 
ATOM      3  C3  UNL     1      12.378  24.349  22.468  0.00  0.00    +0.043 A 
ATOM      4  C4  UNL     1      11.421  25.316  22.837  0.00  0.00    +0.099 A 
ATOM      5  C5  UNL     1      11.846  26.626  23.230  0.00  0.00    -0.014 A 
ATOM      6  C6  UNL     1      13.231  26.969  23.173  0.00  0.00    -0.018 A 
ATOM      7  C7  UNL     1      14.145  25.978  22.793  0.00  0.00    +0.070 A 
ATOM      8  N3  UNL     1      15.434  26.131  22.729  0.00  0.00    -0.174 NA
ATOM      9  C8  UNL     1      15.904  24.854  22.307  0.00  0.00    +0.290 C 
ATOM     10  O4  UNL     1      17.115  24.570  22.118  0.00  0.00    -0.266 OA
ATOM     11  C9  UNL     1      13.746  28.322  23.618  0.00  0.00    +0.037 C 
ATOM     12  C10 UNL     1      12.646  29.380  23.696  0.00  0.00    +0.005 C 
ATOM     13  C11 UNL     1      11.440  28.827  24.445  0.00  0.00    +0.005 C 
ATOM     14  C12 UNL     1      10.825  27.660  23.670  0.00  0.00    +0.038 C 
ENDROOT
BRANCH   1  16
ATOM     15  O1  UNL     1      15.289  21.716  22.448  0.00  0.00    -0.143 OA
ATOM     16  N1  UNL     1      14.765  22.596  21.736  0.00  0.00    -0.025 NA
ENDBRANCH   1  16
BRANCH   4  17
ATOM     17  N2  UNL     1      10.028  24.946  22.805  0.00  0.00    -0.128 N 
BRANCH  17  18
ATOM     18  O2  UNL     1       9.187  25.304  23.807  0.00  0.00    -0.262 OA
ATOM     19  H2  UNL     1       8.841  26.194  23.541  0.00  0.00    +0.247 HD
ENDBRANCH  17  18
BRANCH  17  20
ATOM     20  O3  UNL     1       9.526  24.276  21.739  0.00  0.00    -0.262 OA
ATOM     21  H3  UNL     1       9.186  24.981  21.130  0.00  0.00    +0.247 HD
ENDBRANCH  17  20
ENDBRANCH   4  17
TORSDOF 4
ENDMDL
MODEL 6
REMARK minimizedAffinity -5.48661232
REMARK minimizedRMSD -1
REMARK  Name = /home/tchapet/Post-Doc/ARTICLES-DOSSIERS-DES-ARTICLES-EN-REDACTION/NOUVELS-AXES-DE-RECHERCHE-A-REGARDER-URGEMMENT/ARTICLES-EN-REDACTIONS/ARTICLE_MVOTO/Paper2_Sensors_ActuatorsB/docking_rerun/ligands/4550.pdb
REMARK  4 active torsions:
REMARK  status: ('A' for Active; 'I' for Inactive)
REMARK    1  A    between atoms: N1_2  and  C1_3
REMARK    2  A    between atoms: C4_6  and  N2_7
REMARK    3  A    between atoms: N2_7  and  O2_8
REMARK    4  A    between atoms: N2_7  and  O3_9
REMARK                            x       y       z     vdW  Elec       q    Type
REMARK                         _______ _______ _______ _____ _____    ______ ____
ROOT
ATOM      1  C1  UNL     1     -18.351   1.059   6.756  0.00  0.00    +0.180 C 
ATOM      2  C2  UNL     1     -17.313   1.778   7.145  0.00  0.00    +0.034 A 
ATOM      3  C3  UNL     1     -16.035   1.354   7.485  0.00  0.00    +0.043 A 
ATOM      4  C4  UNL     1     -15.080   2.312   7.878  0.00  0.00    +0.099 A 
ATOM      5  C5  UNL     1     -15.423   3.703   7.878  0.00  0.00    -0.014 A 
ATOM      6  C6  UNL     1     -16.754   4.104   7.553  0.00  0.00    -0.018 A 
ATOM      7  C7  UNL     1     -17.673   3.116   7.177  0.00  0.00    +0.070 A 
ATOM      8  N3  UNL     1     -18.904   3.331   6.822  0.00  0.00    -0.174 NA
ATOM      9  C8  UNL     1     -19.405   2.029   6.535  0.00  0.00    +0.290 C 
ATOM     10  O4  UNL     1     -20.579   1.788   6.152  0.00  0.00    -0.266 OA
ATOM     11  C9  UNL     1     -17.166   5.560   7.493  0.00  0.00    +0.037 C 
ATOM     12  C10 UNL     1     -16.189   6.484   8.219  0.00  0.00    +0.005 C 
ATOM     13  C11 UNL     1     -14.757   6.160   7.809  0.00  0.00    +0.005 C 
ATOM     14  C12 UNL     1     -14.386   4.745   8.258  0.00  0.00    +0.038 C 
ENDROOT
BRANCH   1  16
ATOM     15  O1  UNL     1     -18.833  -1.095   7.499  0.00  0.00    -0.143 OA
ATOM     16  N1  UNL     1     -18.397  -0.359   6.592  0.00  0.00    -0.025 NA
ENDBRANCH   1  16
BRANCH   4  17
ATOM     17  N2  UNL     1     -13.771   1.852   8.271  0.00  0.00    -0.128 N 
BRANCH  17  18
ATOM     18  O2  UNL     1     -13.434   1.737   9.579  0.00  0.00    -0.262 OA
ATOM     19  H2  UNL     1     -13.710   0.820   9.832  0.00  0.00    +0.247 HD
ENDBRANCH  17  18
BRANCH  17  20
ATOM     20  O3  UNL     1     -12.872   1.474   7.329  0.00  0.00    -0.262 OA
ATOM     21  H3  UNL     1     -13.006   0.497   7.223  0.00  0.00    +0.247 HD
ENDBRANCH  17  20
ENDBRANCH   4  17
TORSDOF 4
ENDMDL
MODEL 7
REMARK minimizedAffinity -5.47413111
REMARK minimizedRMSD -1
REMARK  Name = /home/tchapet/Post-Doc/ARTICLES-DOSSIERS-DES-ARTICLES-EN-REDACTION/NOUVELS-AXES-DE-RECHERCHE-A-REGARDER-URGEMMENT/ARTICLES-EN-REDACTIONS/ARTICLE_MVOTO/Paper2_Sensors_ActuatorsB/docking_rerun/ligands/4550.pdb
REMARK  4 active torsions:
REMARK  status: ('A' for Active; 'I' for Inactive)
REMARK    1  A    between atoms: N1_2  and  C1_3
REMARK    2  A    between atoms: C4_6  and  N2_7
REMARK    3  A    between atoms: N2_7  and  O2_8
REMARK    4  A    between atoms: N2_7  and  O3_9
REMARK                            x       y       z     vdW  Elec       q    Type
REMARK                         _______ _______ _______ _____ _____    ______ ____
ROOT
ATOM      1  C1  UNL     1     -24.033 -32.140   2.306  0.00  0.00    +0.180 C 
ATOM      2  C2  UNL     1     -22.756 -31.817   2.212  0.00  0.00    +0.034 A 
ATOM      3  C3  UNL     1     -21.686 -32.599   1.797  0.00  0.00    +0.043 A 
ATOM      4  C4  UNL     1     -20.394 -32.036   1.781  0.00  0.00    +0.099 A 
ATOM      5  C5  UNL     1     -20.210 -30.663   2.148  0.00  0.00    -0.014 A 
ATOM      6  C6  UNL     1     -21.326 -29.896   2.601  0.00  0.00    -0.018 A 
ATOM      7  C7  UNL     1     -22.589 -30.500   2.607  0.00  0.00    +0.070 A 
ATOM      8  N3  UNL     1     -23.698 -29.919   2.958  0.00  0.00    -0.174 NA
ATOM      9  C8  UNL     1     -24.680 -30.936   2.786  0.00  0.00    +0.290 C 
ATOM     10  O4  UNL     1     -25.907 -30.785   3.020  0.00  0.00    -0.266 OA
ATOM     11  C9  UNL     1     -21.203 -28.430   2.960  0.00  0.00    +0.037 C 
ATOM     12  C10 UNL     1     -19.759 -27.999   3.214  0.00  0.00    +0.005 C 
ATOM     13  C11 UNL     1     -18.857 -28.507   2.096  0.00  0.00    +0.005 C 
ATOM     14  C12 UNL     1     -18.829 -30.037   2.093  0.00  0.00    +0.038 C 
ENDROOT
BRANCH   1  16
ATOM     15  O1  UNL     1     -25.184 -33.592   0.894  0.00  0.00    -0.143 OA
ATOM     16  N1  UNL     1     -24.623 -33.403   1.991  0.00  0.00    -0.025 NA
ENDBRANCH   1  16
BRANCH   4  17
ATOM     17  N2  UNL     1     -19.288 -32.873   1.390  0.00  0.00    -0.128 N 
BRANCH  17  18
ATOM     18  O2  UNL     1     -18.588 -33.582   2.309  0.00  0.00    -0.262 OA
ATOM     19  H2  UNL     1     -19.069 -34.446   2.383  0.00  0.00    +0.247 HD
ENDBRANCH  17  18
BRANCH  17  20
ATOM     20  O3  UNL     1     -18.964 -33.004   0.079  0.00  0.00    -0.262 OA
ATOM     21  H3  UNL     1     -19.466 -33.801  -0.230  0.00  0.00    +0.247 HD
ENDBRANCH  17  20
ENDBRANCH   4  17
TORSDOF 4
ENDMDL
MODEL 8
REMARK minimizedAffinity -5.44775391
REMARK minimizedRMSD -1
REMARK  Name = /home/tchapet/Post-Doc/ARTICLES-DOSSIERS-DES-ARTICLES-EN-REDACTION/NOUVELS-AXES-DE-RECHERCHE-A-REGARDER-URGEMMENT/ARTICLES-EN-REDACTIONS/ARTICLE_MVOTO/Paper2_Sensors_ActuatorsB/docking_rerun/ligands/4550.pdb
REMARK  4 active torsions:
REMARK  status: ('A' for Active; 'I' for Inactive)
REMARK    1  A    between atoms: N1_2  and  C1_3
REMARK    2  A    between atoms: C4_6  and  N2_7
REMARK    3  A    between atoms: N2_7  and  O2_8
REMARK    4  A    between atoms: N2_7  and  O3_9
REMARK                            x       y       z     vdW  Elec       q    Type
REMARK                         _______ _______ _______ _____ _____    ______ ____
ROOT
ATOM      1  C1  UNL     1     -21.482 -33.647   1.132  0.00  0.00    +0.180 C 
ATOM      2  C2  UNL     1     -20.787 -32.593   1.519  0.00  0.00    +0.034 A 
ATOM      3  C3  UNL     1     -19.424 -32.354   1.399  0.00  0.00    +0.043 A 
ATOM      4  C4  UNL     1     -18.898 -31.144   1.894  0.00  0.00    +0.099 A 
ATOM      5  C5  UNL     1     -19.773 -30.167   2.468  0.00  0.00    -0.014 A 
ATOM      6  C6  UNL     1     -21.165 -30.456   2.605  0.00  0.00    -0.018 A 
ATOM      7  C7  UNL     1     -21.642 -31.675   2.107  0.00  0.00    +0.070 A 
ATOM      8  N3  UNL     1     -22.883 -32.061   2.128  0.00  0.00    -0.174 NA
ATOM      9  C8  UNL     1     -22.848 -33.342   1.508  0.00  0.00    +0.290 C 
ATOM     10  O4  UNL     1     -23.858 -34.071   1.327  0.00  0.00    -0.266 OA
ATOM     11  C9  UNL     1     -22.147 -29.447   3.163  0.00  0.00    +0.037 C 
ATOM     12  C10 UNL     1     -21.467 -28.324   3.944  0.00  0.00    +0.005 C 
ATOM     13  C11 UNL     1     -20.293 -27.768   3.146  0.00  0.00    +0.005 C 
ATOM     14  C12 UNL     1     -19.220 -28.843   2.964  0.00  0.00    +0.038 C 
ENDROOT
BRANCH   1  16
ATOM     15  O1  UNL     1     -20.789 -34.831  -0.750  0.00  0.00    -0.143 OA
ATOM     16  N1  UNL     1     -20.978 -34.815   0.482  0.00  0.00    -0.025 NA
ENDBRANCH   1  16
BRANCH   4  17
ATOM     17  N2  UNL     1     -17.475 -30.929   1.802  0.00  0.00    -0.128 N 
BRANCH  17  18
ATOM     18  O2  UNL     1     -16.680 -31.036   2.895  0.00  0.00    -0.262 OA
ATOM     19  H2  UNL     1     -16.420 -31.993   2.927  0.00  0.00    +0.247 HD
ENDBRANCH  17  18
BRANCH  17  20
ATOM     20  O3  UNL     1     -16.902 -30.668   0.601  0.00  0.00    -0.262 OA
ATOM     21  H3  UNL     1     -16.628 -31.554   0.250  0.00  0.00    +0.247 HD
ENDBRANCH  17  20
ENDBRANCH   4  17
TORSDOF 4
ENDMDL
MODEL 9
REMARK minimizedAffinity -5.39421368
REMARK minimizedRMSD -1
REMARK  Name = /home/tchapet/Post-Doc/ARTICLES-DOSSIERS-DES-ARTICLES-EN-REDACTION/NOUVELS-AXES-DE-RECHERCHE-A-REGARDER-URGEMMENT/ARTICLES-EN-REDACTIONS/ARTICLE_MVOTO/Paper2_Sensors_ActuatorsB/docking_rerun/ligands/4550.pdb
REMARK  4 active torsions:
REMARK  status: ('A' for Active; 'I' for Inactive)
REMARK    1  A    between atoms: N1_2  and  C1_3
REMARK    2  A    between atoms: C4_6  and  N2_7
REMARK    3  A    between atoms: N2_7  and  O2_8
REMARK    4  A    between atoms: N2_7  and  O3_9
REMARK                            x       y       z     vdW  Elec       q    Type
REMARK                         _______ _______ _______ _____ _____    ______ ____
ROOT
ATOM      1  C1  UNL     1      14.314  27.884  21.787  0.00  0.00    +0.180 C 
ATOM      2  C2  UNL     1      13.195  27.432  22.322  0.00  0.00    +0.034 A 
ATOM      3  C3  UNL     1      12.549  26.222  22.105  0.00  0.00    +0.043 A 
ATOM      4  C4  UNL     1      11.350  25.954  22.794  0.00  0.00    +0.099 A 
ATOM      5  C5  UNL     1      10.841  26.907  23.735  0.00  0.00    -0.014 A 
ATOM      6  C6  UNL     1      11.511  28.155  23.913  0.00  0.00    -0.018 A 
ATOM      7  C7  UNL     1      12.695  28.381  23.200  0.00  0.00    +0.070 A 
ATOM      8  N3  UNL     1      13.430  29.450  23.284  0.00  0.00    -0.174 NA
ATOM      9  C8  UNL     1      14.504  29.191  22.384  0.00  0.00    +0.290 C 
ATOM     10  O4  UNL     1      15.452  29.987  22.164  0.00  0.00    -0.266 OA
ATOM     11  C9  UNL     1      11.046  29.183  24.923  0.00  0.00    +0.037 C 
ATOM     12  C10 UNL     1       9.607  28.958  25.382  0.00  0.00    +0.005 C 
ATOM     13  C11 UNL     1       9.397  27.493  25.749  0.00  0.00    +0.005 C 
ATOM     14  C12 UNL     1       9.572  26.608  24.514  0.00  0.00    +0.038 C 
ENDROOT
BRANCH   1  16
ATOM     15  O1  UNL     1      15.241  27.632  19.665  0.00  0.00    -0.143 OA
ATOM     16  N1  UNL     1      15.141  27.213  20.835  0.00  0.00    -0.025 NA
ENDBRANCH   1  16
BRANCH   4  17
ATOM     17  N2  UNL     1      10.669  24.713  22.525  0.00  0.00    -0.128 N 
BRANCH  17  18
ATOM     18  O2  UNL     1       9.661  24.651  21.620  0.00  0.00    -0.262 OA
ATOM     19  H2  UNL     1      10.108  24.463  20.755  0.00  0.00    +0.247 HD
ENDBRANCH  17  18
BRANCH  17  20
ATOM     20  O3  UNL     1      11.067  23.571  23.139  0.00  0.00    -0.262 OA
ATOM     21  H3  UNL     1      11.720  23.160  22.518  0.00  0.00    +0.247 HD
ENDBRANCH  17  20
ENDBRANCH   4  17
TORSDOF 4
ENDMDL
