MODEL 1
REMARK minimizedAffinity -8.03620815
REMARK minimizedRMSD -1
REMARK  Name = /home/tchapet/Post-Doc/ARTICLES-DOSSIERS-DES-ARTICLES-EN-REDACTION/NOUVELS-AXES-DE-RECHERCHE-A-REGARDER-URGEMMENT/ARTICLES-EN-REDACTIONS/ARTICLE_MVOTO/Paper2_JCIM/docking_rerun/ligands/9168.pdb
REMARK  0 active torsions:
REMARK  status: ('A' for Active; 'I' for Inactive)
REMARK                            x       y       z     vdW  Elec       q    Type
REMARK                         _______ _______ _______ _____ _____    ______ ____
ROOT
ATOM      1  C1  UNL     1       9.735  -7.132  31.441  0.00  0.00    +0.001 A 
ATOM      2  C2  UNL     1       8.530  -6.536  31.797  0.00  0.00    +0.001 A 
ATOM      3  C3  UNL     1       7.328  -7.102  31.385  0.00  0.00    +0.008 A 
ATOM      4  C4  UNL     1       7.321  -8.275  30.611  0.00  0.00    -0.017 A 
ATOM      5  C5  UNL     1       8.537  -8.901  30.236  0.00  0.00    -0.010 A 
ATOM      6  C6  UNL     1       9.747  -8.298  30.672  0.00  0.00    +0.009 A 
ATOM      7  C7  UNL     1       8.492 -10.097  29.445  0.00  0.00    -0.010 A 
ATOM      8  C8  UNL     1       9.663 -10.762  29.044  0.00  0.00    +0.010 A 
ATOM      9  C9  UNL     1       9.623 -11.917  28.279  0.00  0.00    +0.010 A 
ATOM     10  C10 UNL     1       8.407 -12.492  27.861  0.00  0.00    -0.010 A 
ATOM     11  C11 UNL     1       7.195 -11.847  28.249  0.00  0.00    -0.010 A 
ATOM     12  C12 UNL     1       7.235 -10.646  29.043  0.00  0.00    -0.010 A 
ATOM     13  C13 UNL     1       6.057  -9.974  29.449  0.00  0.00    +0.010 A 
ATOM     14  C14 UNL     1       6.104  -8.818  30.215  0.00  0.00    +0.009 A 
ATOM     15  C15 UNL     1       5.979 -12.423  27.831  0.00  0.00    +0.010 A 
ATOM     16  C16 UNL     1       5.938 -13.578  27.067  0.00  0.00    +0.010 A 
ATOM     17  C17 UNL     1       7.110 -14.242  26.666  0.00  0.00    -0.010 A 
ATOM     18  C18 UNL     1       8.368 -13.693  27.067  0.00  0.00    -0.010 A 
ATOM     19  C19 UNL     1       9.546 -14.365  26.661  0.00  0.00    +0.010 A 
ATOM     20  C20 UNL     1       9.498 -15.521  25.895  0.00  0.00    +0.009 A 
ATOM     21  C21 UNL     1       8.281 -16.065  25.499  0.00  0.00    -0.017 A 
ATOM     22  C22 UNL     1       7.064 -15.438  25.875  0.00  0.00    -0.010 A 
ATOM     23  C23 UNL     1       5.855 -16.041  25.438  0.00  0.00    +0.009 A 
ATOM     24  C24 UNL     1       5.867 -17.207  24.670  0.00  0.00    +0.001 A 
ATOM     25  C25 UNL     1       7.072 -17.804  24.313  0.00  0.00    +0.001 A 
ATOM     26  C26 UNL     1       8.275 -17.237  24.725  0.00  0.00    +0.008 A 
ENDROOT
TORSDOF 0
ENDMDL
MODEL 2
REMARK minimizedAffinity -7.90962887
REMARK minimizedRMSD -1
REMARK  Name = /home/tchapet/Post-Doc/ARTICLES-DOSSIERS-DES-ARTICLES-EN-REDACTION/NOUVELS-AXES-DE-RECHERCHE-A-REGARDER-URGEMMENT/ARTICLES-EN-REDACTIONS/ARTICLE_MVOTO/Paper2_JCIM/docking_rerun/ligands/9168.pdb
REMARK  0 active torsions:
REMARK  status: ('A' for Active; 'I' for Inactive)
REMARK                            x       y       z     vdW  Elec       q    Type
REMARK                         _______ _______ _______ _____ _____    ______ ____
ROOT
ATOM      1  C1  UNL     1       6.074 -17.352  24.789  0.00  0.00    +0.001 A 
ATOM      2  C2  UNL     1       7.288 -17.912  24.407  0.00  0.00    +0.001 A 
ATOM      3  C3  UNL     1       8.481 -17.299  24.778  0.00  0.00    +0.008 A 
ATOM      4  C4  UNL     1       8.468 -16.116  25.536  0.00  0.00    -0.017 A 
ATOM      5  C5  UNL     1       7.241 -15.527  25.937  0.00  0.00    -0.010 A 
ATOM      6  C6  UNL     1       6.042 -16.177  25.543  0.00  0.00    +0.009 A 
ATOM      7  C7  UNL     1       7.267 -14.319  26.711  0.00  0.00    -0.010 A 
ATOM      8  C8  UNL     1       6.084 -13.690  27.137  0.00  0.00    +0.010 A 
ATOM      9  C9  UNL     1       6.105 -12.523  27.883  0.00  0.00    +0.010 A 
ATOM     10  C10 UNL     1       7.311 -11.900  28.260  0.00  0.00    -0.010 A 
ATOM     11  C11 UNL     1       8.534 -12.510  27.848  0.00  0.00    -0.010 A 
ATOM     12  C12 UNL     1       8.514 -13.722  27.071  0.00  0.00    -0.010 A 
ATOM     13  C13 UNL     1       9.704 -14.359  26.641  0.00  0.00    +0.010 A 
ATOM     14  C14 UNL     1       9.676 -15.527  25.893  0.00  0.00    +0.009 A 
ATOM     15  C15 UNL     1       9.740 -11.887  28.225  0.00  0.00    +0.010 A 
ATOM     16  C16 UNL     1       9.762 -10.720  28.972  0.00  0.00    +0.010 A 
ATOM     17  C17 UNL     1       8.579 -10.091  29.397  0.00  0.00    -0.010 A 
ATOM     18  C18 UNL     1       7.331 -10.688  29.037  0.00  0.00    -0.010 A 
ATOM     19  C19 UNL     1       6.142 -10.051  29.468  0.00  0.00    +0.010 A 
ATOM     20  C20 UNL     1       6.170  -8.883  30.215  0.00  0.00    +0.009 A 
ATOM     21  C21 UNL     1       7.378  -8.294  30.572  0.00  0.00    -0.017 A 
ATOM     22  C22 UNL     1       8.605  -8.884  30.172  0.00  0.00    -0.010 A 
ATOM     23  C23 UNL     1       9.804  -8.233  30.566  0.00  0.00    +0.009 A 
ATOM     24  C24 UNL     1       9.773  -7.058  31.320  0.00  0.00    +0.001 A 
ATOM     25  C25 UNL     1       8.557  -6.498  31.701  0.00  0.00    +0.001 A 
ATOM     26  C26 UNL     1       7.365  -7.111  31.330  0.00  0.00    +0.008 A 
ENDROOT
TORSDOF 0
ENDMDL
MODEL 3
REMARK minimizedAffinity -7.74561357
REMARK minimizedRMSD -1
REMARK  Name = /home/tchapet/Post-Doc/ARTICLES-DOSSIERS-DES-ARTICLES-EN-REDACTION/NOUVELS-AXES-DE-RECHERCHE-A-REGARDER-URGEMMENT/ARTICLES-EN-REDACTIONS/ARTICLE_MVOTO/Paper2_JCIM/docking_rerun/ligands/9168.pdb
REMARK  0 active torsions:
REMARK  status: ('A' for Active; 'I' for Inactive)
REMARK                            x       y       z     vdW  Elec       q    Type
REMARK                         _______ _______ _______ _____ _____    ______ ____
ROOT
ATOM      1  C1  UNL     1       8.108 -17.096  24.794  0.00  0.00    +0.001 A 
ATOM      2  C2  UNL     1       6.754 -17.375  24.643  0.00  0.00    +0.001 A 
ATOM      3  C3  UNL     1       5.805 -16.534  25.216  0.00  0.00    +0.008 A 
ATOM      4  C4  UNL     1       6.205 -15.403  25.948  0.00  0.00    -0.017 A 
ATOM      5  C5  UNL     1       7.581 -15.098  26.115  0.00  0.00    -0.010 A 
ATOM      6  C6  UNL     1       8.524 -15.976  25.518  0.00  0.00    +0.009 A 
ATOM      7  C7  UNL     1       7.952 -13.935  26.868  0.00  0.00    -0.010 A 
ATOM      8  C8  UNL     1       9.298 -13.583  27.067  0.00  0.00    +0.010 A 
ATOM      9  C9  UNL     1       9.660 -12.461  27.795  0.00  0.00    +0.010 A 
ATOM     10  C10 UNL     1       8.701 -11.607  28.376  0.00  0.00    -0.010 A 
ATOM     11  C11 UNL     1       7.323 -11.931  28.195  0.00  0.00    -0.010 A 
ATOM     12  C12 UNL     1       6.945 -13.097  27.440  0.00  0.00    -0.010 A 
ATOM     13  C13 UNL     1       5.590 -13.455  27.238  0.00  0.00    +0.010 A 
ATOM     14  C14 UNL     1       5.234 -14.580  26.508  0.00  0.00    +0.009 A 
ATOM     15  C15 UNL     1       6.365 -11.077  28.776  0.00  0.00    +0.010 A 
ATOM     16  C16 UNL     1       6.726  -9.955  29.504  0.00  0.00    +0.010 A 
ATOM     17  C17 UNL     1       8.072  -9.603  29.703  0.00  0.00    -0.010 A 
ATOM     18  C18 UNL     1       9.080 -10.441  29.131  0.00  0.00    -0.010 A 
ATOM     19  C19 UNL     1      10.435 -10.083  29.334  0.00  0.00    +0.010 A 
ATOM     20  C20 UNL     1      10.790  -8.958  30.063  0.00  0.00    +0.009 A 
ATOM     21  C21 UNL     1       9.819  -8.135  30.623  0.00  0.00    -0.017 A 
ATOM     22  C22 UNL     1       8.443  -8.440  30.456  0.00  0.00    -0.010 A 
ATOM     23  C23 UNL     1       7.500  -7.562  31.053  0.00  0.00    +0.009 A 
ATOM     24  C24 UNL     1       7.916  -6.441  31.776  0.00  0.00    +0.001 A 
ATOM     25  C25 UNL     1       9.271  -6.163  31.928  0.00  0.00    +0.001 A 
ATOM     26  C26 UNL     1      10.219  -7.004  31.355  0.00  0.00    +0.008 A 
ENDROOT
TORSDOF 0
ENDMDL
MODEL 4
REMARK minimizedAffinity -7.72681999
REMARK minimizedRMSD -1
REMARK  Name = /home/tchapet/Post-Doc/ARTICLES-DOSSIERS-DES-ARTICLES-EN-REDACTION/NOUVELS-AXES-DE-RECHERCHE-A-REGARDER-URGEMMENT/ARTICLES-EN-REDACTIONS/ARTICLE_MVOTO/Paper2_JCIM/docking_rerun/ligands/9168.pdb
REMARK  0 active torsions:
REMARK  status: ('A' for Active; 'I' for Inactive)
REMARK                            x       y       z     vdW  Elec       q    Type
REMARK                         _______ _______ _______ _____ _____    ______ ____
ROOT
ATOM      1  C1  UNL     1       9.396 -18.998  23.302  0.00  0.00    +0.001 A 
ATOM      2  C2  UNL     1       8.153 -19.481  22.905  0.00  0.00    +0.001 A 
ATOM      3  C3  UNL     1       6.994 -18.835  23.321  0.00  0.00    +0.008 A 
ATOM      4  C4  UNL     1       7.067 -17.697  24.142  0.00  0.00    -0.017 A 
ATOM      5  C5  UNL     1       8.323 -17.186  24.560  0.00  0.00    -0.010 A 
ATOM      6  C6  UNL     1       9.488 -17.868  24.118  0.00  0.00    +0.009 A 
ATOM      7  C7  UNL     1       8.361 -16.022  25.398  0.00  0.00    -0.010 A 
ATOM      8  C8  UNL     1       9.574 -15.471  25.843  0.00  0.00    +0.010 A 
ATOM      9  C9  UNL     1       9.613 -14.348  26.653  0.00  0.00    +0.010 A 
ATOM     10  C10 UNL     1       8.441 -13.692  27.076  0.00  0.00    -0.010 A 
ATOM     11  C11 UNL     1       7.188 -14.221  26.644  0.00  0.00    -0.010 A 
ATOM     12  C12 UNL     1       7.145 -15.389  25.803  0.00  0.00    -0.010 A 
ATOM     13  C13 UNL     1       5.924 -15.947  25.353  0.00  0.00    +0.010 A 
ATOM     14  C14 UNL     1       5.891 -17.072  24.542  0.00  0.00    +0.009 A 
ATOM     15  C15 UNL     1       6.015 -13.565  27.067  0.00  0.00    +0.010 A 
ATOM     16  C16 UNL     1       6.053 -12.441  27.876  0.00  0.00    +0.010 A 
ATOM     17  C17 UNL     1       7.268 -11.891  28.322  0.00  0.00    -0.010 A 
ATOM     18  C18 UNL     1       8.484 -12.524  27.917  0.00  0.00    -0.010 A 
ATOM     19  C19 UNL     1       9.705 -11.966  28.367  0.00  0.00    +0.010 A 
ATOM     20  C20 UNL     1       9.737 -10.840  29.178  0.00  0.00    +0.009 A 
ATOM     21  C21 UNL     1       8.561 -10.216  29.577  0.00  0.00    -0.017 A 
ATOM     22  C22 UNL     1       7.304 -10.726  29.159  0.00  0.00    -0.010 A 
ATOM     23  C23 UNL     1       6.140 -10.045  29.602  0.00  0.00    +0.009 A 
ATOM     24  C24 UNL     1       6.232  -8.914  30.417  0.00  0.00    +0.001 A 
ATOM     25  C25 UNL     1       7.475  -8.432  30.815  0.00  0.00    +0.001 A 
ATOM     26  C26 UNL     1       8.635  -9.078  30.398  0.00  0.00    +0.008 A 
ENDROOT
TORSDOF 0
ENDMDL
MODEL 5
REMARK minimizedAffinity -7.7083621
REMARK minimizedRMSD -1
REMARK  Name = /home/tchapet/Post-Doc/ARTICLES-DOSSIERS-DES-ARTICLES-EN-REDACTION/NOUVELS-AXES-DE-RECHERCHE-A-REGARDER-URGEMMENT/ARTICLES-EN-REDACTIONS/ARTICLE_MVOTO/Paper2_JCIM/docking_rerun/ligands/9168.pdb
REMARK  0 active torsions:
REMARK  status: ('A' for Active; 'I' for Inactive)
REMARK                            x       y       z     vdW  Elec       q    Type
REMARK                         _______ _______ _______ _____ _____    ______ ____
ROOT
ATOM      1  C1  UNL     1       6.068  -9.287  30.101  0.00  0.00    +0.001 A 
ATOM      2  C2  UNL     1       7.296  -8.769  30.498  0.00  0.00    +0.001 A 
ATOM      3  C3  UNL     1       8.474  -9.384  30.087  0.00  0.00    +0.008 A 
ATOM      4  C4  UNL     1       8.433 -10.529  29.273  0.00  0.00    -0.017 A 
ATOM      5  C5  UNL     1       7.192 -11.076  28.855  0.00  0.00    -0.010 A 
ATOM      6  C6  UNL     1       6.008 -10.424  29.291  0.00  0.00    +0.009 A 
ATOM      7  C7  UNL     1       7.189 -12.245  28.023  0.00  0.00    -0.010 A 
ATOM      8  C8  UNL     1       5.991 -12.831  27.578  0.00  0.00    +0.010 A 
ATOM      9  C9  UNL     1       5.984 -13.960  26.776  0.00  0.00    +0.010 A 
ATOM     10  C10 UNL     1       7.175 -14.586  26.359  0.00  0.00    -0.010 A 
ATOM     11  C11 UNL     1       8.413 -14.020  26.789  0.00  0.00    -0.010 A 
ATOM     12  C12 UNL     1       8.422 -12.847  27.624  0.00  0.00    -0.010 A 
ATOM     13  C13 UNL     1       9.627 -12.254  28.074  0.00  0.00    +0.010 A 
ATOM     14  C14 UNL     1       9.626 -11.123  28.877  0.00  0.00    +0.009 A 
ATOM     15  C15 UNL     1       9.604 -14.646  26.372  0.00  0.00    +0.010 A 
ATOM     16  C16 UNL     1       9.597 -15.775  25.569  0.00  0.00    +0.010 A 
ATOM     17  C17 UNL     1       8.400 -16.361  25.125  0.00  0.00    -0.010 A 
ATOM     18  C18 UNL     1       7.166 -15.759  25.524  0.00  0.00    -0.010 A 
ATOM     19  C19 UNL     1       5.962 -16.353  25.074  0.00  0.00    +0.010 A 
ATOM     20  C20 UNL     1       5.962 -17.484  24.271  0.00  0.00    +0.009 A 
ATOM     21  C21 UNL     1       7.155 -18.077  23.876  0.00  0.00    -0.017 A 
ATOM     22  C22 UNL     1       8.397 -17.530  24.293  0.00  0.00    -0.010 A 
ATOM     23  C23 UNL     1       9.580 -18.183  23.857  0.00  0.00    +0.009 A 
ATOM     24  C24 UNL     1       9.520 -19.319  23.047  0.00  0.00    +0.001 A 
ATOM     25  C25 UNL     1       8.292 -19.838  22.650  0.00  0.00    +0.001 A 
ATOM     26  C26 UNL     1       7.114 -19.222  23.061  0.00  0.00    +0.008 A 
ENDROOT
TORSDOF 0
ENDMDL
MODEL 6
REMARK minimizedAffinity -7.48991156
REMARK minimizedRMSD -1
REMARK  Name = /home/tchapet/Post-Doc/ARTICLES-DOSSIERS-DES-ARTICLES-EN-REDACTION/NOUVELS-AXES-DE-RECHERCHE-A-REGARDER-URGEMMENT/ARTICLES-EN-REDACTIONS/ARTICLE_MVOTO/Paper2_JCIM/docking_rerun/ligands/9168.pdb
REMARK  0 active torsions:
REMARK  status: ('A' for Active; 'I' for Inactive)
REMARK                            x       y       z     vdW  Elec       q    Type
REMARK                         _______ _______ _______ _____ _____    ______ ____
ROOT
ATOM      1  C1  UNL     1      10.516  -9.542  30.281  0.00  0.00    +0.001 A 
ATOM      2  C2  UNL     1       9.483  -8.761  30.789  0.00  0.00    +0.001 A 
ATOM      3  C3  UNL     1       8.163  -9.065  30.472  0.00  0.00    +0.008 A 
ATOM      4  C4  UNL     1       7.864 -10.157  29.639  0.00  0.00    -0.017 A 
ATOM      5  C5  UNL     1       8.901 -10.969  29.109  0.00  0.00    -0.010 A 
ATOM      6  C6  UNL     1      10.237 -10.632  29.453  0.00  0.00    +0.009 A 
ATOM      7  C7  UNL     1       8.558 -12.076  28.264  0.00  0.00    -0.010 A 
ATOM      8  C8  UNL     1       9.541 -12.914  27.711  0.00  0.00    +0.010 A 
ATOM      9  C9  UNL     1       9.214 -13.983  26.893  0.00  0.00    +0.010 A 
ATOM     10  C10 UNL     1       7.878 -14.294  26.569  0.00  0.00    -0.010 A 
ATOM     11  C11 UNL     1       6.851 -13.466  27.113  0.00  0.00    -0.010 A 
ATOM     12  C12 UNL     1       7.189 -12.353  27.963  0.00  0.00    -0.010 A 
ATOM     13  C13 UNL     1       6.201 -11.507  28.522  0.00  0.00    +0.010 A 
ATOM     14  C14 UNL     1       6.536 -10.438  29.340  0.00  0.00    +0.009 A 
ATOM     15  C15 UNL     1       5.515 -13.776  26.790  0.00  0.00    +0.010 A 
ATOM     16  C16 UNL     1       5.187 -14.846  25.973  0.00  0.00    +0.010 A 
ATOM     17  C17 UNL     1       6.170 -15.684  25.419  0.00  0.00    -0.010 A 
ATOM     18  C18 UNL     1       7.540 -15.406  25.720  0.00  0.00    -0.010 A 
ATOM     19  C19 UNL     1       8.528 -16.252  25.160  0.00  0.00    +0.010 A 
ATOM     20  C20 UNL     1       8.193 -17.322  24.342  0.00  0.00    +0.009 A 
ATOM     21  C21 UNL     1       6.864 -17.602  24.043  0.00  0.00    -0.017 A 
ATOM     22  C22 UNL     1       5.827 -16.791  24.574  0.00  0.00    -0.010 A 
ATOM     23  C23 UNL     1       4.491 -17.128  24.230  0.00  0.00    +0.009 A 
ATOM     24  C24 UNL     1       4.212 -18.217  23.402  0.00  0.00    +0.001 A 
ATOM     25  C25 UNL     1       5.246 -18.998  22.894  0.00  0.00    +0.001 A 
ATOM     26  C26 UNL     1       6.566 -18.694  23.211  0.00  0.00    +0.008 A 
ENDROOT
TORSDOF 0
ENDMDL
MODEL 7
REMARK minimizedAffinity -7.48954535
REMARK minimizedRMSD -1
REMARK  Name = /home/tchapet/Post-Doc/ARTICLES-DOSSIERS-DES-ARTICLES-EN-REDACTION/NOUVELS-AXES-DE-RECHERCHE-A-REGARDER-URGEMMENT/ARTICLES-EN-REDACTIONS/ARTICLE_MVOTO/Paper2_JCIM/docking_rerun/ligands/9168.pdb
REMARK  0 active torsions:
REMARK  status: ('A' for Active; 'I' for Inactive)
REMARK                            x       y       z     vdW  Elec       q    Type
REMARK                         _______ _______ _______ _____ _____    ______ ____
ROOT
ATOM      1  C1  UNL     1       7.827  -7.618  31.332  0.00  0.00    +0.001 A 
ATOM      2  C2  UNL     1       9.183  -7.415  31.562  0.00  0.00    +0.001 A 
ATOM      3  C3  UNL     1      10.118  -8.283  31.008  0.00  0.00    +0.008 A 
ATOM      4  C4  UNL     1       9.702  -9.366  30.215  0.00  0.00    -0.017 A 
ATOM      5  C5  UNL     1       8.324  -9.594  29.966  0.00  0.00    -0.010 A 
ATOM      6  C6  UNL     1       7.395  -8.690  30.547  0.00  0.00    +0.009 A 
ATOM      7  C7  UNL     1       7.936 -10.710  29.152  0.00  0.00    -0.010 A 
ATOM      8  C8  UNL     1       6.587 -10.985  28.871  0.00  0.00    +0.010 A 
ATOM      9  C9  UNL     1       6.209 -12.062  28.086  0.00  0.00    +0.010 A 
ATOM     10  C10 UNL     1       7.154 -12.943  27.523  0.00  0.00    -0.010 A 
ATOM     11  C11 UNL     1       8.535 -12.696  27.785  0.00  0.00    -0.010 A 
ATOM     12  C12 UNL     1       8.930 -11.577  28.602  0.00  0.00    -0.010 A 
ATOM     13  C13 UNL     1      10.288 -11.297  28.887  0.00  0.00    +0.010 A 
ATOM     14  C14 UNL     1      10.660 -10.216  29.674  0.00  0.00    +0.009 A 
ATOM     15  C15 UNL     1       9.480 -13.576  27.222  0.00  0.00    +0.010 A 
ATOM     16  C16 UNL     1       9.103 -14.654  26.437  0.00  0.00    +0.010 A 
ATOM     17  C17 UNL     1       7.753 -14.929  26.156  0.00  0.00    -0.010 A 
ATOM     18  C18 UNL     1       6.759 -14.061  26.707  0.00  0.00    -0.010 A 
ATOM     19  C19 UNL     1       5.401 -14.342  26.422  0.00  0.00    +0.010 A 
ATOM     20  C20 UNL     1       5.029 -15.423  25.635  0.00  0.00    +0.009 A 
ATOM     21  C21 UNL     1       5.987 -16.273  25.093  0.00  0.00    -0.017 A 
ATOM     22  C22 UNL     1       7.366 -16.045  25.342  0.00  0.00    -0.010 A 
ATOM     23  C23 UNL     1       8.294 -16.949  24.762  0.00  0.00    +0.009 A 
ATOM     24  C24 UNL     1       7.863 -18.020  23.976  0.00  0.00    +0.001 A 
ATOM     25  C25 UNL     1       6.506 -18.224  23.746  0.00  0.00    +0.001 A 
ATOM     26  C26 UNL     1       5.571 -17.356  24.301  0.00  0.00    +0.008 A 
ENDROOT
TORSDOF 0
ENDMDL
MODEL 8
REMARK minimizedAffinity -7.41115427
REMARK minimizedRMSD -1
REMARK  Name = /home/tchapet/Post-Doc/ARTICLES-DOSSIERS-DES-ARTICLES-EN-REDACTION/NOUVELS-AXES-DE-RECHERCHE-A-REGARDER-URGEMMENT/ARTICLES-EN-REDACTIONS/ARTICLE_MVOTO/Paper2_JCIM/docking_rerun/ligands/9168.pdb
REMARK  0 active torsions:
REMARK  status: ('A' for Active; 'I' for Inactive)
REMARK                            x       y       z     vdW  Elec       q    Type
REMARK                         _______ _______ _______ _____ _____    ______ ____
ROOT
ATOM      1  C1  UNL     1       7.524 -19.940  22.341  0.00  0.00    +0.001 A 
ATOM      2  C2  UNL     1       6.184 -20.226  22.102  0.00  0.00    +0.001 A 
ATOM      3  C3  UNL     1       5.194 -19.437  22.679  0.00  0.00    +0.008 A 
ATOM      4  C4  UNL     1       5.538 -18.352  23.504  0.00  0.00    -0.017 A 
ATOM      5  C5  UNL     1       6.898 -18.042  23.762  0.00  0.00    -0.010 A 
ATOM      6  C6  UNL     1       7.884 -18.866  23.157  0.00  0.00    +0.009 A 
ATOM      7  C7  UNL     1       7.212 -16.927  24.608  0.00  0.00    -0.010 A 
ATOM      8  C8  UNL     1       8.539 -16.571  24.899  0.00  0.00    +0.010 A 
ATOM      9  C9  UNL     1       8.846 -15.496  25.717  0.00  0.00    +0.010 A 
ATOM     10  C10 UNL     1       7.845 -14.695  26.303  0.00  0.00    -0.010 A 
ATOM     11  C11 UNL     1       6.484 -15.024  26.030  0.00  0.00    -0.010 A 
ATOM     12  C12 UNL     1       6.163 -16.142  25.182  0.00  0.00    -0.010 A 
ATOM     13  C13 UNL     1       4.826 -16.503  24.886  0.00  0.00    +0.010 A 
ATOM     14  C14 UNL     1       4.526 -17.582  24.067  0.00  0.00    +0.009 A 
ATOM     15  C15 UNL     1       5.483 -14.224  26.617  0.00  0.00    +0.010 A 
ATOM     16  C16 UNL     1       5.789 -13.148  27.434  0.00  0.00    +0.010 A 
ATOM     17  C17 UNL     1       7.117 -12.793  27.725  0.00  0.00    -0.010 A 
ATOM     18  C18 UNL     1       8.166 -13.577  27.152  0.00  0.00    -0.010 A 
ATOM     19  C19 UNL     1       9.503 -13.217  27.447  0.00  0.00    +0.010 A 
ATOM     20  C20 UNL     1       9.803 -12.138  28.267  0.00  0.00    +0.009 A 
ATOM     21  C21 UNL     1       8.791 -11.367  28.829  0.00  0.00    -0.017 A 
ATOM     22  C22 UNL     1       7.430 -11.678  28.571  0.00  0.00    -0.010 A 
ATOM     23  C23 UNL     1       6.445 -10.854  29.176  0.00  0.00    +0.009 A 
ATOM     24  C24 UNL     1       6.804  -9.779  29.992  0.00  0.00    +0.001 A 
ATOM     25  C25 UNL     1       8.145  -9.494  30.231  0.00  0.00    +0.001 A 
ATOM     26  C26 UNL     1       9.135 -10.283  29.654  0.00  0.00    +0.008 A 
ENDROOT
TORSDOF 0
ENDMDL
MODEL 9
REMARK minimizedAffinity -7.32543993
REMARK minimizedRMSD -1
REMARK  Name = /home/tchapet/Post-Doc/ARTICLES-DOSSIERS-DES-ARTICLES-EN-REDACTION/NOUVELS-AXES-DE-RECHERCHE-A-REGARDER-URGEMMENT/ARTICLES-EN-REDACTIONS/ARTICLE_MVOTO/Paper2_JCIM/docking_rerun/ligands/9168.pdb
REMARK  0 active torsions:
REMARK  status: ('A' for Active; 'I' for Inactive)
REMARK                            x       y       z     vdW  Elec       q    Type
REMARK                         _______ _______ _______ _____ _____    ______ ____
ROOT
ATOM      1  C1  UNL     1      11.557 -14.834  26.237  0.00  0.00    +0.001 A 
ATOM      2  C2  UNL     1      11.653 -13.790  27.151  0.00  0.00    +0.001 A 
ATOM      3  C3  UNL     1      10.498 -13.196  27.650  0.00  0.00    +0.008 A 
ATOM      4  C4  UNL     1       9.232 -13.643  27.235  0.00  0.00    -0.017 A 
ATOM      5  C5  UNL     1       9.109 -14.706  26.303  0.00  0.00    -0.010 A 
ATOM      6  C6  UNL     1      10.307 -15.291  25.814  0.00  0.00    +0.009 A 
ATOM      7  C7  UNL     1       7.800 -15.136  25.903  0.00  0.00    -0.010 A 
ATOM      8  C8  UNL     1       7.616 -16.183  24.984  0.00  0.00    +0.010 A 
ATOM      9  C9  UNL     1       6.353 -16.600  24.595  0.00  0.00    +0.010 A 
ATOM     10  C10 UNL     1       5.181 -16.001  25.097  0.00  0.00    -0.010 A 
ATOM     11  C11 UNL     1       5.327 -14.934  26.034  0.00  0.00    -0.010 A 
ATOM     12  C12 UNL     1       6.638 -14.498  26.439  0.00  0.00    -0.010 A 
ATOM     13  C13 UNL     1       6.828 -13.444  27.365  0.00  0.00    +0.010 A 
ATOM     14  C14 UNL     1       8.095 -13.031  27.750  0.00  0.00    +0.009 A 
ATOM     15  C15 UNL     1       4.155 -14.334  26.536  0.00  0.00    +0.010 A 
ATOM     16  C16 UNL     1       2.893 -14.751  26.148  0.00  0.00    +0.010 A 
ATOM     17  C17 UNL     1       2.709 -15.798  25.228  0.00  0.00    -0.010 A 
ATOM     18  C18 UNL     1       3.870 -16.436  24.692  0.00  0.00    -0.010 A 
ATOM     19  C19 UNL     1       3.681 -17.491  23.766  0.00  0.00    +0.010 A 
ATOM     20  C20 UNL     1       2.414 -17.904  23.381  0.00  0.00    +0.009 A 
ATOM     21  C21 UNL     1       1.277 -17.291  23.896  0.00  0.00    -0.017 A 
ATOM     22  C22 UNL     1       1.400 -16.228  24.829  0.00  0.00    -0.010 A 
ATOM     23  C23 UNL     1       0.202 -15.643  25.317  0.00  0.00    +0.009 A 
ATOM     24  C24 UNL     1      -1.049 -16.100  24.894  0.00  0.00    +0.001 A 
ATOM     25  C25 UNL     1      -1.145 -17.144  23.979  0.00  0.00    +0.001 A 
ATOM     26  C26 UNL     1       0.011 -17.738  23.481  0.00  0.00    +0.008 A 
ENDROOT
TORSDOF 0
ENDMDL
