MODEL 1
REMARK minimizedAffinity -7.04182816
REMARK minimizedRMSD -1
REMARK  Name = /home/tchapet/Post-Doc/ARTICLES-DOSSIERS-DES-ARTICLES-EN-REDACTION/NOUVELS-AXES-DE-RECHERCHE-A-REGARDER-URGEMMENT/ARTICLES-EN-REDACTIONS/ARTICLE_MVOTO/Paper2_Sensors_ActuatorsB/docking_rerun/ligands/1712.pdb
REMARK  6 active torsions:
REMARK  status: ('A' for Active; 'I' for Inactive)
REMARK    1  A    between atoms: C4_6  and  C5_7
REMARK    2  A    between atoms: C5_7  and  N2_8
REMARK    3  A    between atoms: N2_8  and  C6_9
REMARK    4  A    between atoms: C9_12  and  S1_15
REMARK    5  A    between atoms: S1_15  and  N3_18
REMARK    6  A    between atoms: N3_18  and  C12_19
REMARK                            x       y       z     vdW  Elec       q    Type
REMARK                         _______ _______ _______ _____ _____    ______ ____
ROOT
ATOM      1  C6  UNL     1      12.504 -15.668  -0.491  0.00  0.00    +0.027 A 
ATOM      2  C7  UNL     1      13.380 -16.536   0.181  0.00  0.00    +0.025 A 
ATOM      3  C8  UNL     1      13.339 -17.912  -0.058  0.00  0.00    +0.030 A 
ATOM      4  C9  UNL     1      12.416 -18.442  -0.967  0.00  0.00    +0.109 A 
ATOM      5  C10 UNL     1      11.541 -17.584  -1.644  0.00  0.00    +0.030 A 
ATOM      6  C11 UNL     1      11.582 -16.206  -1.407  0.00  0.00    +0.025 A 
ENDROOT
BRANCH   4   7
ATOM      7  S1  UNL     1      12.362 -20.179  -1.251  0.00  0.00    +0.073 S 
ATOM      8  O2  UNL     1      13.192 -20.504  -2.461  0.00  0.00    -0.150 OA
ATOM      9  O3  UNL     1      10.949 -20.631  -1.488  0.00  0.00    -0.150 OA
BRANCH   7  10
ATOM     10  N3  UNL     1      12.997 -21.018   0.126  0.00  0.00    -0.199 N 
ATOM     11  H8  UNL     1      13.990 -21.341   0.092  0.00  0.00    +0.175 HD
BRANCH  10  12
ATOM     12  C12 UNL     1      12.210 -21.253   1.299  0.00  0.00    +0.138 A 
ATOM     13  C13 UNL     1      12.764 -21.925   2.396  0.00  0.00    +0.045 A 
ATOM     14  C14 UNL     1      11.984 -22.138   3.536  0.00  0.00    +0.005 A 
ATOM     15  C15 UNL     1      10.667 -21.680   3.572  0.00  0.00    +0.020 A 
ATOM     16  C16 UNL     1      10.145 -21.014   2.461  0.00  0.00    +0.113 A 
ATOM     17  N4  UNL     1      10.919 -20.817   1.361  0.00  0.00    -0.239 NA
ENDBRANCH  10  12
ENDBRANCH   7  10
ENDBRANCH   4   7
BRANCH   1  18
ATOM     18  N2  UNL     1      12.574 -14.255  -0.225  0.00  0.00    -0.340 N 
ATOM     19  H3  UNL     1      12.912 -13.947   0.717  0.00  0.00    +0.146 HD
BRANCH  18  20
ATOM     20  C5  UNL     1      12.225 -13.234  -1.216  0.00  0.00    +0.143 C 
BRANCH  20  26
ATOM     21  O1  UNL     1      14.903 -11.992  -0.228  0.00  0.00    -0.268 OA
ATOM     22  C1  UNL     1      14.673 -12.239  -1.440  0.00  0.00    +0.266 C 
ATOM     23  N1  UNL     1      15.608 -12.012  -2.489  0.00  0.00    -0.176 NA
ATOM     24  C2  UNL     1      14.973 -12.413  -3.545  0.00  0.00    +0.066 A 
ATOM     25  C3  UNL     1      13.691 -12.889  -3.281  0.00  0.00    +0.024 A 
ATOM     26  C4  UNL     1      13.441 -12.796  -1.979  0.00  0.00    +0.043 C 
ATOM     27  C17 UNL     1      12.912 -13.372  -4.335  0.00  0.00    +0.048 A 
ATOM     28  S2  UNL     1      11.359 -14.016  -4.357  0.00  0.00    -0.075 S 
ATOM     29  C18 UNL     1      11.392 -14.263  -6.030  0.00  0.00    +0.157 A 
ATOM     30  N5  UNL     1      12.567 -13.864  -6.577  0.00  0.00    -0.247 NA
ATOM     31  C19 UNL     1      13.411 -13.369  -5.634  0.00  0.00    +0.079 A 
ATOM     32  C20 UNL     1      14.701 -12.884  -5.908  0.00  0.00    +0.031 A 
ATOM     33  C21 UNL     1      15.497 -12.399  -4.849  0.00  0.00    +0.028 A 
ENDBRANCH  20  26
ENDBRANCH  18  20
ENDBRANCH   1  18
TORSDOF 6
ENDMDL
MODEL 2
REMARK minimizedAffinity -6.83240414
REMARK minimizedRMSD -1
REMARK  Name = /home/tchapet/Post-Doc/ARTICLES-DOSSIERS-DES-ARTICLES-EN-REDACTION/NOUVELS-AXES-DE-RECHERCHE-A-REGARDER-URGEMMENT/ARTICLES-EN-REDACTIONS/ARTICLE_MVOTO/Paper2_Sensors_ActuatorsB/docking_rerun/ligands/1712.pdb
REMARK  6 active torsions:
REMARK  status: ('A' for Active; 'I' for Inactive)
REMARK    1  A    between atoms: C4_6  and  C5_7
REMARK    2  A    between atoms: C5_7  and  N2_8
REMARK    3  A    between atoms: N2_8  and  C6_9
REMARK    4  A    between atoms: C9_12  and  S1_15
REMARK    5  A    between atoms: S1_15  and  N3_18
REMARK    6  A    between atoms: N3_18  and  C12_19
REMARK                            x       y       z     vdW  Elec       q    Type
REMARK                         _______ _______ _______ _____ _____    ______ ____
ROOT
ATOM      1  C6  UNL     1       1.536 -15.882  23.967  0.00  0.00    +0.027 A 
ATOM      2  C7  UNL     1       1.689 -16.013  22.578  0.00  0.00    +0.025 A 
ATOM      3  C8  UNL     1       0.738 -15.476  21.705  0.00  0.00    +0.030 A 
ATOM      4  C9  UNL     1      -0.382 -14.806  22.209  0.00  0.00    +0.109 A 
ATOM      5  C10 UNL     1      -0.541 -14.667  23.592  0.00  0.00    +0.030 A 
ATOM      6  C11 UNL     1       0.409 -15.203  24.468  0.00  0.00    +0.025 A 
ENDROOT
BRANCH   4   7
ATOM      7  S1  UNL     1      -1.582 -14.146  21.101  0.00  0.00    +0.073 S 
ATOM      8  O2  UNL     1      -2.147 -12.883  21.688  0.00  0.00    -0.150 OA
ATOM      9  O3  UNL     1      -2.696 -15.129  20.882  0.00  0.00    -0.150 OA
BRANCH   7  10
ATOM     10  N3  UNL     1      -0.839 -13.789  19.576  0.00  0.00    -0.199 N 
ATOM     11  H8  UNL     1       0.087 -14.226  19.364  0.00  0.00    +0.175 HD
BRANCH  10  12
ATOM     12  C12 UNL     1      -1.468 -12.944  18.606  0.00  0.00    +0.138 A 
ATOM     13  C13 UNL     1      -0.948 -11.670  18.340  0.00  0.00    +0.045 A 
ATOM     14  C14 UNL     1      -1.570 -10.862  17.385  0.00  0.00    +0.005 A 
ATOM     15  C15 UNL     1      -2.698 -11.328  16.708  0.00  0.00    +0.020 A 
ATOM     16  C16 UNL     1      -3.190 -12.601  16.998  0.00  0.00    +0.113 A 
ATOM     17  N4  UNL     1      -2.573 -13.374  17.931  0.00  0.00    -0.239 NA
ENDBRANCH  10  12
ENDBRANCH   7  10
ENDBRANCH   4   7
BRANCH   1  18
ATOM     18  N2  UNL     1       2.534 -16.443  24.840  0.00  0.00    -0.340 N 
ATOM     19  H3  UNL     1       2.218 -16.848  25.752  0.00  0.00    +0.146 HD
BRANCH  18  20
ATOM     20  C5  UNL     1       3.957 -16.501  24.498  0.00  0.00    +0.143 C 
BRANCH  20  26
ATOM     21  O1  UNL     1       3.029 -14.351  26.550  0.00  0.00    -0.268 OA
ATOM     22  C1  UNL     1       4.242 -14.599  26.324  0.00  0.00    +0.266 C 
ATOM     23  N1  UNL     1       5.322 -13.956  26.993  0.00  0.00    -0.176 NA
ATOM     24  C2  UNL     1       6.368 -14.516  26.472  0.00  0.00    +0.066 A 
ATOM     25  C3  UNL     1       6.070 -15.479  25.511  0.00  0.00    +0.024 A 
ATOM     26  C4  UNL     1       4.752 -15.570  25.367  0.00  0.00    +0.043 C 
ATOM     27  C17 UNL     1       7.112 -16.172  24.892  0.00  0.00    +0.048 A 
ATOM     28  S2  UNL     1       7.096 -17.380  23.723  0.00  0.00    -0.075 S 
ATOM     29  C18 UNL     1       8.783 -17.496  23.695  0.00  0.00    +0.157 A 
ATOM     30  N5  UNL     1       9.364 -16.630  24.562  0.00  0.00    -0.247 NA
ATOM     31  C19 UNL     1       8.434 -15.894  25.226  0.00  0.00    +0.079 A 
ATOM     32  C20 UNL     1       8.743 -14.919  26.190  0.00  0.00    +0.031 A 
ATOM     33  C21 UNL     1       7.696 -14.219  26.825  0.00  0.00    +0.028 A 
ENDBRANCH  20  26
ENDBRANCH  18  20
ENDBRANCH   1  18
TORSDOF 6
ENDMDL
MODEL 3
REMARK minimizedAffinity -6.82157803
REMARK minimizedRMSD -1
REMARK  Name = /home/tchapet/Post-Doc/ARTICLES-DOSSIERS-DES-ARTICLES-EN-REDACTION/NOUVELS-AXES-DE-RECHERCHE-A-REGARDER-URGEMMENT/ARTICLES-EN-REDACTIONS/ARTICLE_MVOTO/Paper2_Sensors_ActuatorsB/docking_rerun/ligands/1712.pdb
REMARK  6 active torsions:
REMARK  status: ('A' for Active; 'I' for Inactive)
REMARK    1  A    between atoms: C4_6  and  C5_7
REMARK    2  A    between atoms: C5_7  and  N2_8
REMARK    3  A    between atoms: N2_8  and  C6_9
REMARK    4  A    between atoms: C9_12  and  S1_15
REMARK    5  A    between atoms: S1_15  and  N3_18
REMARK    6  A    between atoms: N3_18  and  C12_19
REMARK                            x       y       z     vdW  Elec       q    Type
REMARK                         _______ _______ _______ _____ _____    ______ ____
ROOT
ATOM      1  C6  UNL     1      12.736 -18.369  -0.676  0.00  0.00    +0.027 A 
ATOM      2  C7  UNL     1      11.703 -18.094  -1.586  0.00  0.00    +0.025 A 
ATOM      3  C8  UNL     1      11.252 -16.785  -1.776  0.00  0.00    +0.030 A 
ATOM      4  C9  UNL     1      11.824 -15.731  -1.054  0.00  0.00    +0.109 A 
ATOM      5  C10 UNL     1      12.857 -15.995  -0.148  0.00  0.00    +0.030 A 
ATOM      6  C11 UNL     1      13.310 -17.304   0.044  0.00  0.00    +0.025 A 
ENDROOT
BRANCH   4   7
ATOM      7  S1  UNL     1      11.239 -14.087  -1.290  0.00  0.00    +0.073 S 
ATOM      8  O2  UNL     1       9.947 -13.914  -0.542  0.00  0.00    -0.150 OA
ATOM      9  O3  UNL     1      11.004 -13.814  -2.749  0.00  0.00    -0.150 OA
BRANCH   7  10
ATOM     10  N3  UNL     1      12.408 -12.957  -0.688  0.00  0.00    -0.199 N 
ATOM     11  H8  UNL     1      12.254 -12.546   0.260  0.00  0.00    +0.175 HD
BRANCH  10  12
ATOM     12  C12 UNL     1      13.574 -12.601  -1.441  0.00  0.00    +0.138 A 
ATOM     13  C13 UNL     1      14.688 -12.050  -0.794  0.00  0.00    +0.045 A 
ATOM     14  C14 UNL     1      15.820 -11.716  -1.542  0.00  0.00    +0.005 A 
ATOM     15  C15 UNL     1      15.831 -11.933  -2.920  0.00  0.00    +0.020 A 
ATOM     16  C16 UNL     1      14.704 -12.483  -3.533  0.00  0.00    +0.113 A 
ATOM     17  N4  UNL     1      13.611 -12.801  -2.789  0.00  0.00    -0.239 NA
ENDBRANCH  10  12
ENDBRANCH   7  10
ENDBRANCH   4   7
BRANCH   1  18
ATOM     18  N2  UNL     1      13.180 -19.727  -0.505  0.00  0.00    -0.340 N 
ATOM     19  H3  UNL     1      13.344 -20.303  -1.363  0.00  0.00    +0.146 HD
BRANCH  18  20
ATOM     20  C5  UNL     1      13.441 -20.327   0.806  0.00  0.00    +0.143 C 
BRANCH  20  26
ATOM     21  O1  UNL     1      10.972 -21.425  -0.739  0.00  0.00    -0.268 OA
ATOM     22  C1  UNL     1      11.536 -22.064   0.187  0.00  0.00    +0.266 C 
ATOM     23  N1  UNL     1      11.137 -23.362   0.614  0.00  0.00    -0.176 NA
ATOM     24  C2  UNL     1      11.983 -23.637   1.557  0.00  0.00    +0.066 A 
ATOM     25  C3  UNL     1      12.912 -22.625   1.789  0.00  0.00    +0.024 A 
ATOM     26  C4  UNL     1      12.676 -21.608   0.968  0.00  0.00    +0.043 C 
ATOM     27  C17 UNL     1      13.892 -22.811   2.766  0.00  0.00    +0.048 A 
ATOM     28  S2  UNL     1      15.145 -21.814   3.278  0.00  0.00    -0.075 S 
ATOM     29  C18 UNL     1      15.687 -22.936   4.422  0.00  0.00    +0.157 A 
ATOM     30  N5  UNL     1      14.930 -24.061   4.424  0.00  0.00    -0.247 NA
ATOM     31  C19 UNL     1      13.933 -23.991   3.503  0.00  0.00    +0.079 A 
ATOM     32  C20 UNL     1      12.995 -25.013   3.278  0.00  0.00    +0.031 A 
ATOM     33  C21 UNL     1      12.005 -24.836   2.289  0.00  0.00    +0.028 A 
ENDBRANCH  20  26
ENDBRANCH  18  20
ENDBRANCH   1  18
TORSDOF 6
ENDMDL
MODEL 4
REMARK minimizedAffinity -6.72660875
REMARK minimizedRMSD -1
REMARK  Name = /home/tchapet/Post-Doc/ARTICLES-DOSSIERS-DES-ARTICLES-EN-REDACTION/NOUVELS-AXES-DE-RECHERCHE-A-REGARDER-URGEMMENT/ARTICLES-EN-REDACTIONS/ARTICLE_MVOTO/Paper2_Sensors_ActuatorsB/docking_rerun/ligands/1712.pdb
REMARK  6 active torsions:
REMARK  status: ('A' for Active; 'I' for Inactive)
REMARK    1  A    between atoms: C4_6  and  C5_7
REMARK    2  A    between atoms: C5_7  and  N2_8
REMARK    3  A    between atoms: N2_8  and  C6_9
REMARK    4  A    between atoms: C9_12  and  S1_15
REMARK    5  A    between atoms: S1_15  and  N3_18
REMARK    6  A    between atoms: N3_18  and  C12_19
REMARK                            x       y       z     vdW  Elec       q    Type
REMARK                         _______ _______ _______ _____ _____    ______ ____
ROOT
ATOM      1  C6  UNL     1      -0.471 -14.966  21.592  0.00  0.00    +0.027 A 
ATOM      2  C7  UNL     1       0.533 -15.628  20.866  0.00  0.00    +0.025 A 
ATOM      3  C8  UNL     1       0.461 -15.718  19.474  0.00  0.00    +0.030 A 
ATOM      4  C9  UNL     1      -0.619 -15.154  18.786  0.00  0.00    +0.109 A 
ATOM      5  C10 UNL     1      -1.623 -14.489  19.500  0.00  0.00    +0.030 A 
ATOM      6  C11 UNL     1      -1.553 -14.397  20.894  0.00  0.00    +0.025 A 
ENDROOT
BRANCH   4   7
ATOM      7  S1  UNL     1      -0.708 -15.285  17.032  0.00  0.00    +0.073 S 
ATOM      8  O2  UNL     1      -2.146 -15.444  16.625  0.00  0.00    -0.150 OA
ATOM      9  O3  UNL     1       0.073 -16.475  16.551  0.00  0.00    -0.150 OA
BRANCH   7  10
ATOM     10  N3  UNL     1      -0.058 -13.853  16.303  0.00  0.00    -0.199 N 
ATOM     11  H8  UNL     1       0.569 -13.963  15.474  0.00  0.00    +0.175 HD
BRANCH  10  12
ATOM     12  C12 UNL     1      -0.378 -12.544  16.789  0.00  0.00    +0.138 A 
ATOM     13  C13 UNL     1       0.576 -11.806  17.501  0.00  0.00    +0.045 A 
ATOM     14  C14 UNL     1       0.250 -10.527  17.961  0.00  0.00    +0.005 A 
ATOM     15  C15 UNL     1      -1.016  -9.999  17.708  0.00  0.00    +0.020 A 
ATOM     16  C16 UNL     1      -1.943 -10.762  16.996  0.00  0.00    +0.113 A 
ATOM     17  N4  UNL     1      -1.609 -12.005  16.557  0.00  0.00    -0.239 NA
ENDBRANCH  10  12
ENDBRANCH   7  10
ENDBRANCH   4   7
BRANCH   1  18
ATOM     18  N2  UNL     1      -0.367 -14.888  23.025  0.00  0.00    -0.340 N 
ATOM     19  H3  UNL     1      -0.165 -13.955  23.454  0.00  0.00    +0.146 HD
BRANCH  18  20
ATOM     20  C5  UNL     1      -0.560 -16.041  23.908  0.00  0.00    +0.143 C 
BRANCH  20  26
ATOM     21  O1  UNL     1       2.543 -16.032  23.657  0.00  0.00    -0.268 OA
ATOM     22  C1  UNL     1       1.949 -16.061  24.766  0.00  0.00    +0.266 C 
ATOM     23  N1  UNL     1       2.615 -16.063  26.025  0.00  0.00    -0.176 NA
ATOM     24  C2  UNL     1       1.639 -16.082  26.876  0.00  0.00    +0.066 A 
ATOM     25  C3  UNL     1       0.377 -16.093  26.285  0.00  0.00    +0.024 A 
ATOM     26  C4  UNL     1       0.507 -16.090  24.962  0.00  0.00    +0.043 C 
ATOM     27  C17 UNL     1      -0.758 -16.090  27.097  0.00  0.00    +0.048 A 
ATOM     28  S2  UNL     1      -2.394 -16.089  26.711  0.00  0.00    -0.075 S 
ATOM     29  C18 UNL     1      -2.866 -16.083  28.336  0.00  0.00    +0.157 A 
ATOM     30  N5  UNL     1      -1.799 -16.081  29.172  0.00  0.00    -0.247 NA
ATOM     31  C19 UNL     1      -0.628 -16.086  28.483  0.00  0.00    +0.079 A 
ATOM     32  C20 UNL     1       0.641 -16.082  29.087  0.00  0.00    +0.031 A 
ATOM     33  C21 UNL     1       1.793 -16.079  28.273  0.00  0.00    +0.028 A 
ENDBRANCH  20  26
ENDBRANCH  18  20
ENDBRANCH   1  18
TORSDOF 6
ENDMDL
MODEL 5
REMARK minimizedAffinity -6.63348627
REMARK minimizedRMSD -1
REMARK  Name = /home/tchapet/Post-Doc/ARTICLES-DOSSIERS-DES-ARTICLES-EN-REDACTION/NOUVELS-AXES-DE-RECHERCHE-A-REGARDER-URGEMMENT/ARTICLES-EN-REDACTIONS/ARTICLE_MVOTO/Paper2_Sensors_ActuatorsB/docking_rerun/ligands/1712.pdb
REMARK  6 active torsions:
REMARK  status: ('A' for Active; 'I' for Inactive)
REMARK    1  A    between atoms: C4_6  and  C5_7
REMARK    2  A    between atoms: C5_7  and  N2_8
REMARK    3  A    between atoms: N2_8  and  C6_9
REMARK    4  A    between atoms: C9_12  and  S1_15
REMARK    5  A    between atoms: S1_15  and  N3_18
REMARK    6  A    between atoms: N3_18  and  C12_19
REMARK                            x       y       z     vdW  Elec       q    Type
REMARK                         _______ _______ _______ _____ _____    ______ ____
ROOT
ATOM      1  C6  UNL     1      -0.464 -14.564  21.788  0.00  0.00    +0.027 A 
ATOM      2  C7  UNL     1      -1.422 -13.585  21.479  0.00  0.00    +0.025 A 
ATOM      3  C8  UNL     1      -2.120 -13.631  20.270  0.00  0.00    +0.030 A 
ATOM      4  C9  UNL     1      -1.867 -14.653  19.348  0.00  0.00    +0.109 A 
ATOM      5  C10 UNL     1      -0.917 -15.636  19.649  0.00  0.00    +0.030 A 
ATOM      6  C11 UNL     1      -0.217 -15.593  20.859  0.00  0.00    +0.025 A 
ENDROOT
BRANCH   4   7
ATOM      7  S1  UNL     1      -2.743 -14.695  17.821  0.00  0.00    +0.073 S 
ATOM      8  O2  UNL     1      -4.145 -14.206  18.047  0.00  0.00    -0.150 OA
ATOM      9  O3  UNL     1      -2.791 -16.095  17.278  0.00  0.00    -0.150 OA
BRANCH   7  10
ATOM     10  N3  UNL     1      -1.955 -13.671  16.665  0.00  0.00    -0.199 N 
ATOM     11  H8  UNL     1      -2.019 -13.928  15.654  0.00  0.00    +0.175 HD
BRANCH  10  12
ATOM     12  C12 UNL     1      -1.251 -12.487  17.059  0.00  0.00    +0.138 A 
ATOM     13  C13 UNL     1      -1.944 -11.284  17.240  0.00  0.00    +0.045 A 
ATOM     14  C14 UNL     1      -1.243 -10.140  17.632  0.00  0.00    +0.005 A 
ATOM     15  C15 UNL     1       0.135 -10.207  17.839  0.00  0.00    +0.020 A 
ATOM     16  C16 UNL     1       0.795 -11.422  17.649  0.00  0.00    +0.113 A 
ATOM     17  N4  UNL     1       0.097 -12.524  17.267  0.00  0.00    -0.239 NA
ENDBRANCH  10  12
ENDBRANCH   7  10
ENDBRANCH   4   7
BRANCH   1  18
ATOM     18  N2  UNL     1       0.237 -14.490  23.043  0.00  0.00    -0.340 N 
ATOM     19  H3  UNL     1       0.382 -13.547  23.471  0.00  0.00    +0.146 HD
BRANCH  18  20
ATOM     20  C5  UNL     1       0.725 -15.672  23.760  0.00  0.00    +0.143 C 
BRANCH  20  26
ATOM     21  O1  UNL     1      -2.310 -15.771  24.447  0.00  0.00    -0.268 OA
ATOM     22  C1  UNL     1      -1.410 -15.880  25.320  0.00  0.00    +0.266 C 
ATOM     23  N1  UNL     1      -1.666 -16.090  26.705  0.00  0.00    -0.176 NA
ATOM     24  C2  UNL     1      -0.479 -16.155  27.219  0.00  0.00    +0.066 A 
ATOM     25  C3  UNL     1       0.546 -16.007  26.287  0.00  0.00    +0.024 A 
ATOM     26  C4  UNL     1       0.025 -15.821  25.079  0.00  0.00    +0.043 C 
ATOM     27  C17 UNL     1       1.873 -16.081  26.715  0.00  0.00    +0.048 A 
ATOM     28  S2  UNL     1       3.317 -15.959  25.863  0.00  0.00    -0.075 S 
ATOM     29  C18 UNL     1       4.256 -16.183  27.252  0.00  0.00    +0.157 A 
ATOM     30  N5  UNL     1       3.490 -16.351  28.358  0.00  0.00    -0.247 NA
ATOM     31  C19 UNL     1       2.166 -16.294  28.059  0.00  0.00    +0.079 A 
ATOM     32  C20 UNL     1       1.137 -16.438  29.005  0.00  0.00    +0.031 A 
ATOM     33  C21 UNL     1      -0.207 -16.369  28.581  0.00  0.00    +0.028 A 
ENDBRANCH  20  26
ENDBRANCH  18  20
ENDBRANCH   1  18
TORSDOF 6
ENDMDL
MODEL 6
REMARK minimizedAffinity -6.51628017
REMARK minimizedRMSD -1
REMARK  Name = /home/tchapet/Post-Doc/ARTICLES-DOSSIERS-DES-ARTICLES-EN-REDACTION/NOUVELS-AXES-DE-RECHERCHE-A-REGARDER-URGEMMENT/ARTICLES-EN-REDACTIONS/ARTICLE_MVOTO/Paper2_Sensors_ActuatorsB/docking_rerun/ligands/1712.pdb
REMARK  6 active torsions:
REMARK  status: ('A' for Active; 'I' for Inactive)
REMARK    1  A    between atoms: C4_6  and  C5_7
REMARK    2  A    between atoms: C5_7  and  N2_8
REMARK    3  A    between atoms: N2_8  and  C6_9
REMARK    4  A    between atoms: C9_12  and  S1_15
REMARK    5  A    between atoms: S1_15  and  N3_18
REMARK    6  A    between atoms: N3_18  and  C12_19
REMARK                            x       y       z     vdW  Elec       q    Type
REMARK                         _______ _______ _______ _____ _____    ______ ____
ROOT
ATOM      1  C6  UNL     1      12.920 -19.032  -0.528  0.00  0.00    +0.027 A 
ATOM      2  C7  UNL     1      11.976 -18.957  -1.564  0.00  0.00    +0.025 A 
ATOM      3  C8  UNL     1      11.495 -17.718  -1.999  0.00  0.00    +0.030 A 
ATOM      4  C9  UNL     1      11.947 -16.537  -1.399  0.00  0.00    +0.109 A 
ATOM      5  C10 UNL     1      12.891 -16.602  -0.368  0.00  0.00    +0.030 A 
ATOM      6  C11 UNL     1      13.374 -17.840   0.069  0.00  0.00    +0.025 A 
ENDROOT
BRANCH   4   7
ATOM      7  S1  UNL     1      11.325 -14.983  -1.944  0.00  0.00    +0.073 S 
ATOM      8  O2  UNL     1       9.823 -15.025  -1.934  0.00  0.00    -0.150 OA
ATOM      9  O3  UNL     1      11.799 -14.684  -3.339  0.00  0.00    -0.150 OA
BRANCH   7  10
ATOM     10  N3  UNL     1      11.873 -13.727  -0.883  0.00  0.00    -0.199 N 
ATOM     11  H8  UNL     1      11.462 -13.678   0.077  0.00  0.00    +0.175 HD
BRANCH  10  12
ATOM     12  C12 UNL     1      12.878 -12.786  -1.279  0.00  0.00    +0.138 A 
ATOM     13  C13 UNL     1      14.145 -12.817  -0.682  0.00  0.00    +0.045 A 
ATOM     14  C14 UNL     1      15.116 -11.898  -1.086  0.00  0.00    +0.005 A 
ATOM     15  C15 UNL     1      14.818 -10.961  -2.076  0.00  0.00    +0.020 A 
ATOM     16  C16 UNL     1      13.545 -10.957  -2.649  0.00  0.00    +0.113 A 
ATOM     17  N4  UNL     1      12.612 -11.859  -2.243  0.00  0.00    -0.239 NA
ENDBRANCH  10  12
ENDBRANCH   7  10
ENDBRANCH   4   7
BRANCH   1  18
ATOM     18  N2  UNL     1      13.398 -20.322  -0.104  0.00  0.00    -0.340 N 
ATOM     19  H3  UNL     1      14.409 -20.413   0.151  0.00  0.00    +0.146 HD
BRANCH  18  20
ATOM     20  C5  UNL     1      12.532 -21.498   0.015  0.00  0.00    +0.143 C 
BRANCH  20  26
ATOM     21  O1  UNL     1      14.151 -21.851   2.651  0.00  0.00    -0.268 OA
ATOM     22  C1  UNL     1      12.894 -21.815   2.623  0.00  0.00    +0.266 C 
ATOM     23  N1  UNL     1      12.070 -21.900   3.782  0.00  0.00    -0.176 NA
ATOM     24  C2  UNL     1      10.871 -21.809   3.300  0.00  0.00    +0.066 A 
ATOM     25  C3  UNL     1      10.831 -21.669   1.915  0.00  0.00    +0.024 A 
ATOM     26  C4  UNL     1      12.069 -21.676   1.432  0.00  0.00    +0.043 C 
ATOM     27  C17 UNL     1       9.596 -21.538   1.277  0.00  0.00    +0.048 A 
ATOM     28  S2  UNL     1       9.205 -21.344  -0.346  0.00  0.00    -0.075 S 
ATOM     29  C18 UNL     1       7.544 -21.290  -0.029  0.00  0.00    +0.157 A 
ATOM     30  N5  UNL     1       7.278 -21.417   1.294  0.00  0.00    -0.247 NA
ATOM     31  C19 UNL     1       8.418 -21.555   2.019  0.00  0.00    +0.079 A 
ATOM     32  C20 UNL     1       8.451 -21.702   3.417  0.00  0.00    +0.031 A 
ATOM     33  C21 UNL     1       9.695 -21.830   4.069  0.00  0.00    +0.028 A 
ENDBRANCH  20  26
ENDBRANCH  18  20
ENDBRANCH   1  18
TORSDOF 6
ENDMDL
MODEL 7
REMARK minimizedAffinity -6.5087347
REMARK minimizedRMSD -1
REMARK  Name = /home/tchapet/Post-Doc/ARTICLES-DOSSIERS-DES-ARTICLES-EN-REDACTION/NOUVELS-AXES-DE-RECHERCHE-A-REGARDER-URGEMMENT/ARTICLES-EN-REDACTIONS/ARTICLE_MVOTO/Paper2_Sensors_ActuatorsB/docking_rerun/ligands/1712.pdb
REMARK  6 active torsions:
REMARK  status: ('A' for Active; 'I' for Inactive)
REMARK    1  A    between atoms: C4_6  and  C5_7
REMARK    2  A    between atoms: C5_7  and  N2_8
REMARK    3  A    between atoms: N2_8  and  C6_9
REMARK    4  A    between atoms: C9_12  and  S1_15
REMARK    5  A    between atoms: S1_15  and  N3_18
REMARK    6  A    between atoms: N3_18  and  C12_19
REMARK                            x       y       z     vdW  Elec       q    Type
REMARK                         _______ _______ _______ _____ _____    ______ ____
ROOT
ATOM      1  C6  UNL     1       0.182 -15.353  14.556  0.00  0.00    +0.027 A 
ATOM      2  C7  UNL     1      -0.391 -15.879  15.725  0.00  0.00    +0.025 A 
ATOM      3  C8  UNL     1      -0.942 -15.031  16.689  0.00  0.00    +0.030 A 
ATOM      4  C9  UNL     1      -0.923 -13.644  16.502  0.00  0.00    +0.109 A 
ATOM      5  C10 UNL     1      -0.357 -13.111  15.338  0.00  0.00    +0.030 A 
ATOM      6  C11 UNL     1       0.194 -13.957  14.371  0.00  0.00    +0.025 A 
ENDROOT
BRANCH   4   7
ATOM      7  S1  UNL     1      -1.608 -12.583  17.730  0.00  0.00    +0.073 S 
ATOM      8  O2  UNL     1      -2.678 -11.735  17.103  0.00  0.00    -0.150 OA
ATOM      9  O3  UNL     1      -0.546 -11.690  18.307  0.00  0.00    -0.150 OA
BRANCH   7  10
ATOM     10  N3  UNL     1      -2.298 -13.532  19.006  0.00  0.00    -0.199 N 
ATOM     11  H8  UNL     1      -3.243 -13.952  18.853  0.00  0.00    +0.175 HD
BRANCH  10  12
ATOM     12  C12 UNL     1      -1.602 -13.769  20.235  0.00  0.00    +0.138 A 
ATOM     13  C13 UNL     1      -2.073 -13.210  21.430  0.00  0.00    +0.045 A 
ATOM     14  C14 UNL     1      -1.386 -13.459  22.621  0.00  0.00    +0.005 A 
ATOM     15  C15 UNL     1      -0.242 -14.257  22.610  0.00  0.00    +0.020 A 
ATOM     16  C16 UNL     1       0.200 -14.798  21.402  0.00  0.00    +0.113 A 
ATOM     17  N4  UNL     1      -0.480 -14.545  20.252  0.00  0.00    -0.239 NA
ENDBRANCH  10  12
ENDBRANCH   7  10
ENDBRANCH   4   7
BRANCH   1  18
ATOM     18  N2  UNL     1       0.740 -16.252  13.580  0.00  0.00    -0.340 N 
ATOM     19  H3  UNL     1       1.711 -16.067  13.237  0.00  0.00    +0.146 HD
BRANCH  18  20
ATOM     20  C5  UNL     1       0.026 -17.426  13.071  0.00  0.00    +0.143 C 
BRANCH  20  26
ATOM     21  O1  UNL     1      -2.160 -15.498  11.977  0.00  0.00    -0.268 OA
ATOM     22  C1  UNL     1      -1.478 -16.248  11.232  0.00  0.00    +0.266 C 
ATOM     23  N1  UNL     1      -1.601 -16.284   9.814  0.00  0.00    -0.176 NA
ATOM     24  C2  UNL     1      -0.719 -17.166   9.462  0.00  0.00    +0.066 A 
ATOM     25  C3  UNL     1      -0.020 -17.718  10.533  0.00  0.00    +0.024 A 
ATOM     26  C4  UNL     1      -0.458 -17.190  11.670  0.00  0.00    +0.043 C 
ATOM     27  C17 UNL     1       0.975 -18.665  10.282  0.00  0.00    +0.048 A 
ATOM     28  S2  UNL     1       1.994 -19.501  11.326  0.00  0.00    -0.075 S 
ATOM     29  C18 UNL     1       2.753 -20.330  10.061  0.00  0.00    +0.157 A 
ATOM     30  N5  UNL     1       2.245 -19.982   8.853  0.00  0.00    -0.247 NA
ATOM     31  C19 UNL     1       1.258 -19.057   8.977  0.00  0.00    +0.079 A 
ATOM     32  C20 UNL     1       0.551 -18.509   7.892  0.00  0.00    +0.031 A 
ATOM     33  C21 UNL     1      -0.452 -17.547   8.136  0.00  0.00    +0.028 A 
ENDBRANCH  20  26
ENDBRANCH  18  20
ENDBRANCH   1  18
TORSDOF 6
ENDMDL
MODEL 8
REMARK minimizedAffinity -6.39075279
REMARK minimizedRMSD -1
REMARK  Name = /home/tchapet/Post-Doc/ARTICLES-DOSSIERS-DES-ARTICLES-EN-REDACTION/NOUVELS-AXES-DE-RECHERCHE-A-REGARDER-URGEMMENT/ARTICLES-EN-REDACTIONS/ARTICLE_MVOTO/Paper2_Sensors_ActuatorsB/docking_rerun/ligands/1712.pdb
REMARK  6 active torsions:
REMARK  status: ('A' for Active; 'I' for Inactive)
REMARK    1  A    between atoms: C4_6  and  C5_7
REMARK    2  A    between atoms: C5_7  and  N2_8
REMARK    3  A    between atoms: N2_8  and  C6_9
REMARK    4  A    between atoms: C9_12  and  S1_15
REMARK    5  A    between atoms: S1_15  and  N3_18
REMARK    6  A    between atoms: N3_18  and  C12_19
REMARK                            x       y       z     vdW  Elec       q    Type
REMARK                         _______ _______ _______ _____ _____    ______ ____
ROOT
ATOM      1  C6  UNL     1       6.503 -11.543  28.452  0.00  0.00    +0.027 A 
ATOM      2  C7  UNL     1       7.805 -11.847  28.881  0.00  0.00    +0.025 A 
ATOM      3  C8  UNL     1       8.618 -10.856  29.439  0.00  0.00    +0.030 A 
ATOM      4  C9  UNL     1       8.144  -9.546  29.571  0.00  0.00    +0.109 A 
ATOM      5  C10 UNL     1       6.846  -9.235  29.149  0.00  0.00    +0.030 A 
ATOM      6  C11 UNL     1       6.030 -10.225  28.591  0.00  0.00    +0.025 A 
ENDROOT
BRANCH   4   7
ATOM      7  S1  UNL     1       9.181  -8.302  30.262  0.00  0.00    +0.073 S 
ATOM      8  O2  UNL     1      10.364  -8.959  30.915  0.00  0.00    -0.150 OA
ATOM      9  O3  UNL     1       8.432  -7.502  31.290  0.00  0.00    -0.150 OA
BRANCH   7  10
ATOM     10  N3  UNL     1       9.731  -7.236  29.011  0.00  0.00    -0.199 N 
ATOM     11  H8  UNL     1       9.345  -6.265  28.985  0.00  0.00    +0.175 HD
BRANCH  10  12
ATOM     12  C12 UNL     1      10.707  -7.643  28.045  0.00  0.00    +0.138 A 
ATOM     13  C13 UNL     1      10.396  -8.636  27.106  0.00  0.00    +0.045 A 
ATOM     14  C14 UNL     1      11.357  -9.015  26.165  0.00  0.00    +0.005 A 
ATOM     15  C15 UNL     1      12.612  -8.404  26.168  0.00  0.00    +0.020 A 
ATOM     16  C16 UNL     1      12.889  -7.419  27.118  0.00  0.00    +0.113 A 
ATOM     17  N4  UNL     1      11.942  -7.064  28.026  0.00  0.00    -0.239 NA
ENDBRANCH  10  12
ENDBRANCH   7  10
ENDBRANCH   4   7
BRANCH   1  18
ATOM     18  N2  UNL     1       5.689 -12.586  27.884  0.00  0.00    -0.340 N 
ATOM     19  H3  UNL     1       4.852 -12.306  27.322  0.00  0.00    +0.146 HD
BRANCH  18  20
ATOM     20  C5  UNL     1       5.996 -14.011  28.029  0.00  0.00    +0.143 C 
BRANCH  20  26
ATOM     21  O1  UNL     1       3.436 -14.442  26.311  0.00  0.00    -0.268 OA
ATOM     22  C1  UNL     1       4.567 -14.874  25.969  0.00  0.00    +0.266 C 
ATOM     23  N1  UNL     1       4.816 -15.578  24.756  0.00  0.00    -0.176 NA
ATOM     24  C2  UNL     1       6.089 -15.814  24.806  0.00  0.00    +0.066 A 
ATOM     25  C3  UNL     1       6.706 -15.324  25.955  0.00  0.00    +0.024 A 
ATOM     26  C4  UNL     1       5.801 -14.733  26.728  0.00  0.00    +0.043 C 
ATOM     27  C17 UNL     1       8.082 -15.495  26.116  0.00  0.00    +0.048 A 
ATOM     28  S2  UNL     1       9.117 -15.022  27.353  0.00  0.00    -0.075 S 
ATOM     29  C18 UNL     1      10.474 -15.685  26.589  0.00  0.00    +0.157 A 
ATOM     30  N5  UNL     1      10.154 -16.262  25.404  0.00  0.00    -0.247 NA
ATOM     31  C19 UNL     1       8.826 -16.156  25.142  0.00  0.00    +0.079 A 
ATOM     32  C20 UNL     1       8.208 -16.659  23.984  0.00  0.00    +0.031 A 
ATOM     33  C21 UNL     1       6.819 -16.486  23.811  0.00  0.00    +0.028 A 
ENDBRANCH  20  26
ENDBRANCH  18  20
ENDBRANCH   1  18
TORSDOF 6
ENDMDL
MODEL 9
REMARK minimizedAffinity -6.38550472
REMARK minimizedRMSD -1
REMARK  Name = /home/tchapet/Post-Doc/ARTICLES-DOSSIERS-DES-ARTICLES-EN-REDACTION/NOUVELS-AXES-DE-RECHERCHE-A-REGARDER-URGEMMENT/ARTICLES-EN-REDACTIONS/ARTICLE_MVOTO/Paper2_Sensors_ActuatorsB/docking_rerun/ligands/1712.pdb
REMARK  6 active torsions:
REMARK  status: ('A' for Active; 'I' for Inactive)
REMARK    1  A    between atoms: C4_6  and  C5_7
REMARK    2  A    between atoms: C5_7  and  N2_8
REMARK    3  A    between atoms: N2_8  and  C6_9
REMARK    4  A    between atoms: C9_12  and  S1_15
REMARK    5  A    between atoms: S1_15  and  N3_18
REMARK    6  A    between atoms: N3_18  and  C12_19
REMARK                            x       y       z     vdW  Elec       q    Type
REMARK                         _______ _______ _______ _____ _____    ______ ____
ROOT
ATOM      1  C6  UNL     1      -0.106 -17.644  11.921  0.00  0.00    +0.027 A 
ATOM      2  C7  UNL     1      -1.011 -16.572  11.855  0.00  0.00    +0.025 A 
ATOM      3  C8  UNL     1      -1.248 -15.773  12.978  0.00  0.00    +0.030 A 
ATOM      4  C9  UNL     1      -0.590 -16.039  14.184  0.00  0.00    +0.109 A 
ATOM      5  C10 UNL     1       0.316 -17.104  14.257  0.00  0.00    +0.030 A 
ATOM      6  C11 UNL     1       0.556 -17.904  13.136  0.00  0.00    +0.025 A 
ENDROOT
BRANCH   4   7
ATOM      7  S1  UNL     1      -0.907 -15.036  15.596  0.00  0.00    +0.073 S 
ATOM      8  O2  UNL     1      -0.405 -15.745  16.822  0.00  0.00    -0.150 OA
ATOM      9  O3  UNL     1      -2.380 -14.781  15.743  0.00  0.00    -0.150 OA
BRANCH   7  10
ATOM     10  N3  UNL     1      -0.087 -13.517  15.432  0.00  0.00    -0.199 N 
ATOM     11  H8  UNL     1       0.619 -13.417  14.669  0.00  0.00    +0.175 HD
BRANCH  10  12
ATOM     12  C12 UNL     1      -0.372 -12.407  16.292  0.00  0.00    +0.138 A 
ATOM     13  C13 UNL     1       0.600 -11.942  17.187  0.00  0.00    +0.045 A 
ATOM     14  C14 UNL     1       0.308 -10.853  18.012  0.00  0.00    +0.005 A 
ATOM     15  C15 UNL     1      -0.943 -10.240  17.937  0.00  0.00    +0.020 A 
ATOM     16  C16 UNL     1      -1.889 -10.729  17.035  0.00  0.00    +0.113 A 
ATOM     17  N4  UNL     1      -1.588 -11.790  16.240  0.00  0.00    -0.239 NA
ENDBRANCH  10  12
ENDBRANCH   7  10
ENDBRANCH   4   7
BRANCH   1  18
ATOM     18  N2  UNL     1       0.119 -18.447  10.747  0.00  0.00    -0.340 N 
ATOM     19  H3  UNL     1      -0.708 -18.907  10.300  0.00  0.00    +0.146 HD
BRANCH  18  20
ATOM     20  C5  UNL     1       1.439 -18.621  10.136  0.00  0.00    +0.143 C 
BRANCH  20  26
ATOM     21  O1  UNL     1      -0.699 -17.203   8.373  0.00  0.00    -0.268 OA
ATOM     22  C1  UNL     1       0.337 -17.732   7.894  0.00  0.00    +0.266 C 
ATOM     23  N1  UNL     1       0.668 -17.721   6.509  0.00  0.00    -0.176 NA
ATOM     24  C2  UNL     1       1.799 -18.352   6.469  0.00  0.00    +0.066 A 
ATOM     25  C3  UNL     1       2.246 -18.782   7.717  0.00  0.00    +0.024 A 
ATOM     26  C4  UNL     1       1.367 -18.431   8.649  0.00  0.00    +0.043 C 
ATOM     27  C17 UNL     1       3.466 -19.455   7.810  0.00  0.00    +0.048 A 
ATOM     28  S2  UNL     1       4.283 -20.083   9.138  0.00  0.00    -0.075 S 
ATOM     29  C18 UNL     1       5.569 -20.643   8.191  0.00  0.00    +0.157 A 
ATOM     30  N5  UNL     1       5.389 -20.360   6.877  0.00  0.00    -0.247 NA
ATOM     31  C19 UNL     1       4.221 -19.701   6.666  0.00  0.00    +0.079 A 
ATOM     32  C20 UNL     1       3.772 -19.276   5.404  0.00  0.00    +0.031 A 
ATOM     33  C21 UNL     1       2.543 -18.590   5.301  0.00  0.00    +0.028 A 
ENDBRANCH  20  26
ENDBRANCH  18  20
ENDBRANCH   1  18
TORSDOF 6
ENDMDL
