MODEL 1
REMARK minimizedAffinity -6.58706188
REMARK minimizedRMSD -1
REMARK  Name = /home/tchapet/Post-Doc/ARTICLES-DOSSIERS-DES-ARTICLES-EN-REDACTION/NOUVELS-AXES-DE-RECHERCHE-A-REGARDER-URGEMMENT/ARTICLES-EN-REDACTIONS/ARTICLE_MVOTO/Paper2_Sensors_ActuatorsB/docking_rerun/ligands/1712.pdb
REMARK  6 active torsions:
REMARK  status: ('A' for Active; 'I' for Inactive)
REMARK    1  A    between atoms: C4_6  and  C5_7
REMARK    2  A    between atoms: C5_7  and  N2_8
REMARK    3  A    between atoms: N2_8  and  C6_9
REMARK    4  A    between atoms: C9_12  and  S1_15
REMARK    5  A    between atoms: S1_15  and  N3_18
REMARK    6  A    between atoms: N3_18  and  C12_19
REMARK                            x       y       z     vdW  Elec       q    Type
REMARK                         _______ _______ _______ _____ _____    ______ ____
ROOT
ATOM      1  C6  UNL     1       0.486 -15.092  21.678  0.00  0.00    +0.027 A 
ATOM      2  C7  UNL     1      -0.676 -14.471  21.193  0.00  0.00    +0.025 A 
ATOM      3  C8  UNL     1      -1.018 -14.561  19.841  0.00  0.00    +0.030 A 
ATOM      4  C9  UNL     1      -0.201 -15.270  18.953  0.00  0.00    +0.109 A 
ATOM      5  C10 UNL     1       0.957 -15.896  19.428  0.00  0.00    +0.030 A 
ATOM      6  C11 UNL     1       1.301 -15.807  20.781  0.00  0.00    +0.025 A 
ENDROOT
BRANCH   4   7
ATOM      7  S1  UNL     1      -0.634 -15.367  17.248  0.00  0.00    +0.073 S 
ATOM      8  O2  UNL     1      -2.130 -15.435  17.126  0.00  0.00    -0.150 OA
ATOM      9  O3  UNL     1      -0.032 -16.592  16.620  0.00  0.00    -0.150 OA
BRANCH   7  10
ATOM     10  N3  UNL     1      -0.051 -13.964  16.415  0.00  0.00    -0.199 N 
ATOM     11  H8  UNL     1       0.545 -14.105  15.568  0.00  0.00    +0.175 HD
BRANCH  10  12
ATOM     12  C12 UNL     1      -0.385 -12.637  16.840  0.00  0.00    +0.138 A 
ATOM     13  C13 UNL     1       0.559 -11.858  17.522  0.00  0.00    +0.045 A 
ATOM     14  C14 UNL     1       0.218 -10.564  17.923  0.00  0.00    +0.005 A 
ATOM     15  C15 UNL     1      -1.052 -10.060  17.641  0.00  0.00    +0.020 A 
ATOM     16  C16 UNL     1      -1.969 -10.863  16.960  0.00  0.00    +0.113 A 
ATOM     17  N4  UNL     1      -1.620 -12.121  16.579  0.00  0.00    -0.239 NA
ENDBRANCH  10  12
ENDBRANCH   7  10
ENDBRANCH   4   7
BRANCH   1  18
ATOM     18  N2  UNL     1       0.810 -14.983  23.076  0.00  0.00    -0.340 N 
ATOM     19  H3  UNL     1       1.807 -15.117  23.362  0.00  0.00    +0.146 HD
BRANCH  18  20
ATOM     20  C5  UNL     1      -0.181 -14.661  24.106  0.00  0.00    +0.143 C 
BRANCH  20  26
ATOM     21  O1  UNL     1       2.482 -15.318  25.578  0.00  0.00    -0.268 OA
ATOM     22  C1  UNL     1       1.359 -15.697  26.000  0.00  0.00    +0.266 C 
ATOM     23  N1  UNL     1       1.170 -16.436  27.202  0.00  0.00    -0.176 NA
ATOM     24  C2  UNL     1      -0.115 -16.594  27.254  0.00  0.00    +0.066 A 
ATOM     25  C3  UNL     1      -0.795 -16.019  26.183  0.00  0.00    +0.024 A 
ATOM     26  C4  UNL     1       0.077 -15.449  25.357  0.00  0.00    +0.043 C 
ATOM     27  C17 UNL     1      -2.188 -16.100  26.136  0.00  0.00    +0.048 A 
ATOM     28  S2  UNL     1      -3.292 -15.514  25.012  0.00  0.00    -0.075 S 
ATOM     29  C18 UNL     1      -4.618 -16.127  25.865  0.00  0.00    +0.157 A 
ATOM     30  N5  UNL     1      -4.237 -16.773  26.995  0.00  0.00    -0.247 NA
ATOM     31  C19 UNL     1      -2.887 -16.758  27.144  0.00  0.00    +0.079 A 
ATOM     32  C20 UNL     1      -2.206 -17.346  28.224  0.00  0.00    +0.031 A 
ATOM     33  C21 UNL     1      -0.799 -17.264  28.283  0.00  0.00    +0.028 A 
ENDBRANCH  20  26
ENDBRANCH  18  20
ENDBRANCH   1  18
TORSDOF 6
ENDMDL
MODEL 2
REMARK minimizedAffinity -6.55120897
REMARK minimizedRMSD -1
REMARK  Name = /home/tchapet/Post-Doc/ARTICLES-DOSSIERS-DES-ARTICLES-EN-REDACTION/NOUVELS-AXES-DE-RECHERCHE-A-REGARDER-URGEMMENT/ARTICLES-EN-REDACTIONS/ARTICLE_MVOTO/Paper2_Sensors_ActuatorsB/docking_rerun/ligands/1712.pdb
REMARK  6 active torsions:
REMARK  status: ('A' for Active; 'I' for Inactive)
REMARK    1  A    between atoms: C4_6  and  C5_7
REMARK    2  A    between atoms: C5_7  and  N2_8
REMARK    3  A    between atoms: N2_8  and  C6_9
REMARK    4  A    between atoms: C9_12  and  S1_15
REMARK    5  A    between atoms: S1_15  and  N3_18
REMARK    6  A    between atoms: N3_18  and  C12_19
REMARK                            x       y       z     vdW  Elec       q    Type
REMARK                         _______ _______ _______ _____ _____    ______ ____
ROOT
ATOM      1  C6  UNL     1      12.696 -18.478  -0.718  0.00  0.00    +0.027 A 
ATOM      2  C7  UNL     1      13.286 -17.426  -0.001  0.00  0.00    +0.025 A 
ATOM      3  C8  UNL     1      12.841 -16.112  -0.172  0.00  0.00    +0.030 A 
ATOM      4  C9  UNL     1      11.802 -15.831  -1.066  0.00  0.00    +0.109 A 
ATOM      5  C10 UNL     1      11.205 -16.874  -1.783  0.00  0.00    +0.030 A 
ATOM      6  C11 UNL     1      11.648 -18.190  -1.613  0.00  0.00    +0.025 A 
ENDROOT
BRANCH   4   7
ATOM      7  S1  UNL     1      11.257 -14.170  -1.285  0.00  0.00    +0.073 S 
ATOM      8  O2  UNL     1       9.963 -13.979  -0.546  0.00  0.00    -0.150 OA
ATOM      9  O3  UNL     1      11.041 -13.873  -2.742  0.00  0.00    -0.150 OA
BRANCH   7  10
ATOM     10  N3  UNL     1      12.446 -13.076  -0.657  0.00  0.00    -0.199 N 
ATOM     11  H8  UNL     1      12.322 -12.719   0.317  0.00  0.00    +0.175 HD
BRANCH  10  12
ATOM     12  C12 UNL     1      13.588 -12.677  -1.425  0.00  0.00    +0.138 A 
ATOM     13  C13 UNL     1      14.687 -12.081  -0.793  0.00  0.00    +0.045 A 
ATOM     14  C14 UNL     1      15.796 -11.706  -1.556  0.00  0.00    +0.005 A 
ATOM     15  C15 UNL     1      15.799 -11.927  -2.934  0.00  0.00    +0.020 A 
ATOM     16  C16 UNL     1      14.687 -12.523  -3.531  0.00  0.00    +0.113 A 
ATOM     17  N4  UNL     1      13.617 -12.880  -2.773  0.00  0.00    -0.239 NA
ENDBRANCH  10  12
ENDBRANCH   7  10
ENDBRANCH   4   7
BRANCH   1  18
ATOM     18  N2  UNL     1      13.175 -19.821  -0.519  0.00  0.00    -0.340 N 
ATOM     19  H3  UNL     1      13.403 -20.393  -1.365  0.00  0.00    +0.146 HD
BRANCH  18  20
ATOM     20  C5  UNL     1      13.387 -20.408   0.807  0.00  0.00    +0.143 C 
BRANCH  20  26
ATOM     21  O1  UNL     1      11.053 -21.627  -0.853  0.00  0.00    -0.268 OA
ATOM     22  C1  UNL     1      11.619 -22.247   0.085  0.00  0.00    +0.266 C 
ATOM     23  N1  UNL     1      11.284 -23.575   0.476  0.00  0.00    -0.176 NA
ATOM     24  C2  UNL     1      12.107 -23.814   1.447  0.00  0.00    +0.066 A 
ATOM     25  C3  UNL     1      12.962 -22.752   1.733  0.00  0.00    +0.024 A 
ATOM     26  C4  UNL     1      12.697 -21.736   0.918  0.00  0.00    +0.043 C 
ATOM     27  C17 UNL     1      13.912 -22.894   2.746  0.00  0.00    +0.048 A 
ATOM     28  S2  UNL     1      15.080 -21.832   3.323  0.00  0.00    -0.075 S 
ATOM     29  C18 UNL     1      15.644 -22.939   4.471  0.00  0.00    +0.157 A 
ATOM     30  N5  UNL     1      14.959 -24.108   4.425  0.00  0.00    -0.247 NA
ATOM     31  C19 UNL     1      13.997 -24.082   3.466  0.00  0.00    +0.079 A 
ATOM     32  C20 UNL     1      13.133 -25.155   3.187  0.00  0.00    +0.031 A 
ATOM     33  C21 UNL     1      12.173 -25.022   2.162  0.00  0.00    +0.028 A 
ENDBRANCH  20  26
ENDBRANCH  18  20
ENDBRANCH   1  18
TORSDOF 6
ENDMDL
MODEL 3
REMARK minimizedAffinity -6.54160213
REMARK minimizedRMSD -1
REMARK  Name = /home/tchapet/Post-Doc/ARTICLES-DOSSIERS-DES-ARTICLES-EN-REDACTION/NOUVELS-AXES-DE-RECHERCHE-A-REGARDER-URGEMMENT/ARTICLES-EN-REDACTIONS/ARTICLE_MVOTO/Paper2_Sensors_ActuatorsB/docking_rerun/ligands/1712.pdb
REMARK  6 active torsions:
REMARK  status: ('A' for Active; 'I' for Inactive)
REMARK    1  A    between atoms: C4_6  and  C5_7
REMARK    2  A    between atoms: C5_7  and  N2_8
REMARK    3  A    between atoms: N2_8  and  C6_9
REMARK    4  A    between atoms: C9_12  and  S1_15
REMARK    5  A    between atoms: S1_15  and  N3_18
REMARK    6  A    between atoms: N3_18  and  C12_19
REMARK                            x       y       z     vdW  Elec       q    Type
REMARK                         _______ _______ _______ _____ _____    ______ ____
ROOT
ATOM      1  C6  UNL     1       1.469 -15.801  24.093  0.00  0.00    +0.027 A 
ATOM      2  C7  UNL     1       1.639 -15.943  22.706  0.00  0.00    +0.025 A 
ATOM      3  C8  UNL     1       0.707 -15.401  21.816  0.00  0.00    +0.030 A 
ATOM      4  C9  UNL     1      -0.412 -14.715  22.300  0.00  0.00    +0.109 A 
ATOM      5  C10 UNL     1      -0.588 -14.565  23.681  0.00  0.00    +0.030 A 
ATOM      6  C11 UNL     1       0.343 -15.106  24.573  0.00  0.00    +0.025 A 
ENDROOT
BRANCH   4   7
ATOM      7  S1  UNL     1      -1.588 -14.048  21.172  0.00  0.00    +0.073 S 
ATOM      8  O2  UNL     1      -2.172 -12.793  21.758  0.00  0.00    -0.150 OA
ATOM      9  O3  UNL     1      -2.694 -15.033  20.918  0.00  0.00    -0.150 OA
BRANCH   7  10
ATOM     10  N3  UNL     1      -0.812 -13.674  19.668  0.00  0.00    -0.199 N 
ATOM     11  H8  UNL     1       0.139 -14.070  19.492  0.00  0.00    +0.175 HD
BRANCH  10  12
ATOM     12  C12 UNL     1      -1.447 -12.869  18.668  0.00  0.00    +0.138 A 
ATOM     13  C13 UNL     1      -0.921 -11.613  18.337  0.00  0.00    +0.045 A 
ATOM     14  C14 UNL     1      -1.548 -10.844  17.354  0.00  0.00    +0.005 A 
ATOM     15  C15 UNL     1      -2.687 -11.331  16.712  0.00  0.00    +0.020 A 
ATOM     16  C16 UNL     1      -3.185 -12.586  17.066  0.00  0.00    +0.113 A 
ATOM     17  N4  UNL     1      -2.562 -13.320  18.026  0.00  0.00    -0.239 NA
ENDBRANCH  10  12
ENDBRANCH   7  10
ENDBRANCH   4   7
BRANCH   1  18
ATOM     18  N2  UNL     1       2.448 -16.368  24.983  0.00  0.00    -0.340 N 
ATOM     19  H3  UNL     1       2.398 -17.395  25.179  0.00  0.00    +0.146 HD
BRANCH  18  20
ATOM     20  C5  UNL     1       3.522 -15.585  25.597  0.00  0.00    +0.143 C 
BRANCH  20  26
ATOM     21  O1  UNL     1       4.292 -17.884  23.644  0.00  0.00    -0.268 OA
ATOM     22  C1  UNL     1       5.149 -17.189  24.250  0.00  0.00    +0.266 C 
ATOM     23  N1  UNL     1       6.555 -17.348  24.095  0.00  0.00    -0.176 NA
ATOM     24  C2  UNL     1       7.044 -16.436  24.875  0.00  0.00    +0.066 A 
ATOM     25  C3  UNL     1       6.076 -15.684  25.536  0.00  0.00    +0.024 A 
ATOM     26  C4  UNL     1       4.867 -16.116  25.192  0.00  0.00    +0.043 C 
ATOM     27  C17 UNL     1       6.476 -14.654  26.390  0.00  0.00    +0.048 A 
ATOM     28  S2  UNL     1       5.580 -13.571  27.311  0.00  0.00    -0.075 S 
ATOM     29  C18 UNL     1       6.963 -12.810  27.919  0.00  0.00    +0.157 A 
ATOM     30  N5  UNL     1       8.100 -13.365  27.431  0.00  0.00    -0.247 NA
ATOM     31  C19 UNL     1       7.829 -14.389  26.582  0.00  0.00    +0.079 A 
ATOM     32  C20 UNL     1       8.811 -15.148  25.924  0.00  0.00    +0.031 A 
ATOM     33  C21 UNL     1       8.416 -16.187  25.056  0.00  0.00    +0.028 A 
ENDBRANCH  20  26
ENDBRANCH  18  20
ENDBRANCH   1  18
TORSDOF 6
ENDMDL
MODEL 4
REMARK minimizedAffinity -6.31946659
REMARK minimizedRMSD -1
REMARK  Name = /home/tchapet/Post-Doc/ARTICLES-DOSSIERS-DES-ARTICLES-EN-REDACTION/NOUVELS-AXES-DE-RECHERCHE-A-REGARDER-URGEMMENT/ARTICLES-EN-REDACTIONS/ARTICLE_MVOTO/Paper2_Sensors_ActuatorsB/docking_rerun/ligands/1712.pdb
REMARK  6 active torsions:
REMARK  status: ('A' for Active; 'I' for Inactive)
REMARK    1  A    between atoms: C4_6  and  C5_7
REMARK    2  A    between atoms: C5_7  and  N2_8
REMARK    3  A    between atoms: N2_8  and  C6_9
REMARK    4  A    between atoms: C9_12  and  S1_15
REMARK    5  A    between atoms: S1_15  and  N3_18
REMARK    6  A    between atoms: N3_18  and  C12_19
REMARK                            x       y       z     vdW  Elec       q    Type
REMARK                         _______ _______ _______ _____ _____    ______ ____
ROOT
ATOM      1  C6  UNL     1       0.052 -17.570  11.915  0.00  0.00    +0.027 A 
ATOM      2  C7  UNL     1      -1.007 -16.720  11.561  0.00  0.00    +0.025 A 
ATOM      3  C8  UNL     1      -1.538 -15.821  12.491  0.00  0.00    +0.030 A 
ATOM      4  C9  UNL     1      -1.021 -15.765  13.790  0.00  0.00    +0.109 A 
ATOM      5  C10 UNL     1       0.038 -16.606  14.151  0.00  0.00    +0.030 A 
ATOM      6  C11 UNL     1       0.571 -17.505  13.222  0.00  0.00    +0.025 A 
ENDROOT
BRANCH   4   7
ATOM      7  S1  UNL     1      -1.706 -14.640  14.959  0.00  0.00    +0.073 S 
ATOM      8  O2  UNL     1      -2.837 -15.314  15.684  0.00  0.00    -0.150 OA
ATOM      9  O3  UNL     1      -2.228 -13.412  14.267  0.00  0.00    -0.150 OA
BRANCH   7  10
ATOM     10  N3  UNL     1      -0.491 -14.168  16.101  0.00  0.00    -0.199 N 
ATOM     11  H8  UNL     1       0.306 -14.822  16.272  0.00  0.00    +0.175 HD
BRANCH  10  12
ATOM     12  C12 UNL     1      -0.542 -12.910  16.784  0.00  0.00    +0.138 A 
ATOM     13  C13 UNL     1       0.111 -11.791  16.249  0.00  0.00    +0.045 A 
ATOM     14  C14 UNL     1       0.045 -10.570  16.925  0.00  0.00    +0.005 A 
ATOM     15  C15 UNL     1      -0.669 -10.475  18.120  0.00  0.00    +0.020 A 
ATOM     16  C16 UNL     1      -1.307 -11.609  18.626  0.00  0.00    +0.113 A 
ATOM     17  N4  UNL     1      -1.230 -12.789  17.955  0.00  0.00    -0.239 NA
ENDBRANCH  10  12
ENDBRANCH   7  10
ENDBRANCH   4   7
BRANCH   1  18
ATOM     18  N2  UNL     1       0.579 -18.482  10.933  0.00  0.00    -0.340 N 
ATOM     19  H3  UNL     1       0.602 -19.501  11.171  0.00  0.00    +0.146 HD
BRANCH  18  20
ATOM     20  C5  UNL     1       1.052 -18.056   9.614  0.00  0.00    +0.143 C 
BRANCH  20  26
ATOM     21  O1  UNL     1       3.316 -18.952  11.554  0.00  0.00    -0.268 OA
ATOM     22  C1  UNL     1       3.421 -19.029  10.303  0.00  0.00    +0.266 C 
ATOM     23  N1  UNL     1       4.561 -19.555   9.632  0.00  0.00    -0.176 NA
ATOM     24  C2  UNL     1       4.240 -19.457   8.380  0.00  0.00    +0.066 A 
ATOM     25  C3  UNL     1       2.978 -18.908   8.166  0.00  0.00    +0.024 A 
ATOM     26  C4  UNL     1       2.419 -18.610   9.334  0.00  0.00    +0.043 C 
ATOM     27  C17 UNL     1       2.506 -18.771   6.859  0.00  0.00    +0.048 A 
ATOM     28  S2  UNL     1       1.052 -18.170   6.266  0.00  0.00    -0.075 S 
ATOM     29  C18 UNL     1       1.494 -18.449   4.657  0.00  0.00    +0.157 A 
ATOM     30  N5  UNL     1       2.732 -18.993   4.560  0.00  0.00    -0.247 NA
ATOM     31  C19 UNL     1       3.294 -19.171   5.783  0.00  0.00    +0.079 A 
ATOM     32  C20 UNL     1       4.571 -19.720   5.992  0.00  0.00    +0.031 A 
ATOM     33  C21 UNL     1       5.053 -19.867   7.310  0.00  0.00    +0.028 A 
ENDBRANCH  20  26
ENDBRANCH  18  20
ENDBRANCH   1  18
TORSDOF 6
ENDMDL
MODEL 5
REMARK minimizedAffinity -6.25078106
REMARK minimizedRMSD -1
REMARK  Name = /home/tchapet/Post-Doc/ARTICLES-DOSSIERS-DES-ARTICLES-EN-REDACTION/NOUVELS-AXES-DE-RECHERCHE-A-REGARDER-URGEMMENT/ARTICLES-EN-REDACTIONS/ARTICLE_MVOTO/Paper2_Sensors_ActuatorsB/docking_rerun/ligands/1712.pdb
REMARK  6 active torsions:
REMARK  status: ('A' for Active; 'I' for Inactive)
REMARK    1  A    between atoms: C4_6  and  C5_7
REMARK    2  A    between atoms: C5_7  and  N2_8
REMARK    3  A    between atoms: N2_8  and  C6_9
REMARK    4  A    between atoms: C9_12  and  S1_15
REMARK    5  A    between atoms: S1_15  and  N3_18
REMARK    6  A    between atoms: N3_18  and  C12_19
REMARK                            x       y       z     vdW  Elec       q    Type
REMARK                         _______ _______ _______ _____ _____    ______ ____
ROOT
ATOM      1  C6  UNL     1      11.992 -14.766  -0.848  0.00  0.00    +0.027 A 
ATOM      2  C7  UNL     1      11.209 -15.625  -1.636  0.00  0.00    +0.025 A 
ATOM      3  C8  UNL     1      11.364 -17.011  -1.546  0.00  0.00    +0.030 A 
ATOM      4  C9  UNL     1      12.309 -17.559  -0.671  0.00  0.00    +0.109 A 
ATOM      5  C10 UNL     1      13.092 -16.710   0.121  0.00  0.00    +0.030 A 
ATOM      6  C11 UNL     1      12.937 -15.323   0.033  0.00  0.00    +0.025 A 
ENDROOT
BRANCH   4   7
ATOM      7  S1  UNL     1      12.508 -19.306  -0.575  0.00  0.00    +0.073 S 
ATOM      8  O2  UNL     1      13.561 -19.623   0.449  0.00  0.00    -0.150 OA
ATOM      9  O3  UNL     1      12.930 -19.863  -1.905  0.00  0.00    -0.150 OA
BRANCH   7  10
ATOM     10  N3  UNL     1      11.010 -20.042  -0.107  0.00  0.00    -0.199 N 
ATOM     11  H8  UNL     1      10.129 -19.688  -0.544  0.00  0.00    +0.175 HD
BRANCH  10  12
ATOM     12  C12 UNL     1      10.958 -21.123   0.831  0.00  0.00    +0.138 A 
ATOM     13  C13 UNL     1      10.482 -20.906   2.130  0.00  0.00    +0.045 A 
ATOM     14  C14 UNL     1      10.431 -21.974   3.029  0.00  0.00    +0.005 A 
ATOM     15  C15 UNL     1      10.852 -23.242   2.628  0.00  0.00    +0.020 A 
ATOM     16  C16 UNL     1      11.321 -23.424   1.325  0.00  0.00    +0.113 A 
ATOM     17  N4  UNL     1      11.365 -22.373   0.464  0.00  0.00    -0.239 NA
ENDBRANCH  10  12
ENDBRANCH   7  10
ENDBRANCH   4   7
BRANCH   1  18
ATOM     18  N2  UNL     1      11.806 -13.343  -0.962  0.00  0.00    -0.340 N 
ATOM     19  H3  UNL     1      11.550 -12.810  -0.099  0.00  0.00    +0.146 HD
BRANCH  18  20
ATOM     20  C5  UNL     1      11.988 -12.609  -2.217  0.00  0.00    +0.143 C 
BRANCH  20  26
ATOM     21  O1  UNL     1      14.298 -12.026  -0.213  0.00  0.00    -0.268 OA
ATOM     22  C1  UNL     1      14.471 -12.072  -1.458  0.00  0.00    +0.266 C 
ATOM     23  N1  UNL     1      15.734 -11.896  -2.092  0.00  0.00    -0.176 NA
ATOM     24  C2  UNL     1      15.457 -12.035  -3.350  0.00  0.00    +0.066 A 
ATOM     25  C3  UNL     1      14.111 -12.290  -3.603  0.00  0.00    +0.024 A 
ATOM     26  C4  UNL     1      13.440 -12.316  -2.456  0.00  0.00    +0.043 C 
ATOM     27  C17 UNL     1      13.689 -12.483  -4.920  0.00  0.00    +0.048 A 
ATOM     28  S2  UNL     1      12.169 -12.815  -5.556  0.00  0.00    -0.075 S 
ATOM     29  C18 UNL     1      12.746 -12.852  -7.145  0.00  0.00    +0.157 A 
ATOM     30  N5  UNL     1      14.081 -12.617  -7.204  0.00  0.00    -0.247 NA
ATOM     31  C19 UNL     1      14.603 -12.411  -5.967  0.00  0.00    +0.079 A 
ATOM     32  C20 UNL     1      15.961 -12.148  -5.719  0.00  0.00    +0.031 A 
ATOM     33  C21 UNL     1      16.397 -11.957  -4.391  0.00  0.00    +0.028 A 
ENDBRANCH  20  26
ENDBRANCH  18  20
ENDBRANCH   1  18
TORSDOF 6
ENDMDL
MODEL 6
REMARK minimizedAffinity -6.22769308
REMARK minimizedRMSD -1
REMARK  Name = /home/tchapet/Post-Doc/ARTICLES-DOSSIERS-DES-ARTICLES-EN-REDACTION/NOUVELS-AXES-DE-RECHERCHE-A-REGARDER-URGEMMENT/ARTICLES-EN-REDACTIONS/ARTICLE_MVOTO/Paper2_Sensors_ActuatorsB/docking_rerun/ligands/1712.pdb
REMARK  6 active torsions:
REMARK  status: ('A' for Active; 'I' for Inactive)
REMARK    1  A    between atoms: C4_6  and  C5_7
REMARK    2  A    between atoms: C5_7  and  N2_8
REMARK    3  A    between atoms: N2_8  and  C6_9
REMARK    4  A    between atoms: C9_12  and  S1_15
REMARK    5  A    between atoms: S1_15  and  N3_18
REMARK    6  A    between atoms: N3_18  and  C12_19
REMARK                            x       y       z     vdW  Elec       q    Type
REMARK                         _______ _______ _______ _____ _____    ______ ____
ROOT
ATOM      1  C6  UNL     1       1.470 -15.805  24.267  0.00  0.00    +0.027 A 
ATOM      2  C7  UNL     1       1.645 -16.003  22.888  0.00  0.00    +0.025 A 
ATOM      3  C8  UNL     1       0.718 -15.493  21.974  0.00  0.00    +0.030 A 
ATOM      4  C9  UNL     1      -0.400 -14.783  22.426  0.00  0.00    +0.109 A 
ATOM      5  C10 UNL     1      -0.581 -14.577  23.799  0.00  0.00    +0.030 A 
ATOM      6  C11 UNL     1       0.345 -15.086  24.715  0.00  0.00    +0.025 A 
ENDROOT
BRANCH   4   7
ATOM      7  S1  UNL     1      -1.569 -14.156  21.268  0.00  0.00    +0.073 S 
ATOM      8  O2  UNL     1      -2.176 -12.896  21.817  0.00  0.00    -0.150 OA
ATOM      9  O3  UNL     1      -2.659 -15.161  21.021  0.00  0.00    -0.150 OA
BRANCH   7  10
ATOM     10  N3  UNL     1      -0.777 -13.806  19.766  0.00  0.00    -0.199 N 
ATOM     11  H8  UNL     1       0.161 -14.233  19.592  0.00  0.00    +0.175 HD
BRANCH  10  12
ATOM     12  C12 UNL     1      -1.382 -12.979  18.766  0.00  0.00    +0.138 A 
ATOM     13  C13 UNL     1      -0.854 -11.711  18.487  0.00  0.00    +0.045 A 
ATOM     14  C14 UNL     1      -1.452 -10.920  17.503  0.00  0.00    +0.005 A 
ATOM     15  C15 UNL     1      -2.564 -11.398  16.808  0.00  0.00    +0.020 A 
ATOM     16  C16 UNL     1      -3.065 -12.665  17.111  0.00  0.00    +0.113 A 
ATOM     17  N4  UNL     1      -2.470 -13.420  18.073  0.00  0.00    -0.239 NA
ENDBRANCH  10  12
ENDBRANCH   7  10
ENDBRANCH   4   7
BRANCH   1  18
ATOM     18  N2  UNL     1       2.443 -16.341  25.183  0.00  0.00    -0.340 N 
ATOM     19  H3  UNL     1       3.143 -17.024  24.813  0.00  0.00    +0.146 HD
BRANCH  18  20
ATOM     20  C5  UNL     1       2.516 -15.951  26.594  0.00  0.00    +0.143 C 
BRANCH  20  26
ATOM     21  O1  UNL     1       4.684 -14.815  24.669  0.00  0.00    -0.268 OA
ATOM     22  C1  UNL     1       4.766 -14.718  25.921  0.00  0.00    +0.266 C 
ATOM     23  N1  UNL     1       5.830 -14.059  26.600  0.00  0.00    -0.176 NA
ATOM     24  C2  UNL     1       5.508 -14.183  27.848  0.00  0.00    +0.066 A 
ATOM     25  C3  UNL     1       4.315 -14.872  28.054  0.00  0.00    +0.024 A 
ATOM     26  C4  UNL     1       3.807 -15.241  26.883  0.00  0.00    +0.043 C 
ATOM     27  C17 UNL     1       3.847 -15.052  29.357  0.00  0.00    +0.048 A 
ATOM     28  S2  UNL     1       2.465 -15.811  29.941  0.00  0.00    -0.075 S 
ATOM     29  C18 UNL     1       2.853 -15.471  31.552  0.00  0.00    +0.157 A 
ATOM     30  N5  UNL     1       4.020 -14.787  31.657  0.00  0.00    -0.247 NA
ATOM     31  C19 UNL     1       4.571 -14.555  30.437  0.00  0.00    +0.079 A 
ATOM     32  C20 UNL     1       5.779 -13.865  30.237  0.00  0.00    +0.031 A 
ATOM     33  C21 UNL     1       6.256 -13.674  28.924  0.00  0.00    +0.028 A 
ENDBRANCH  20  26
ENDBRANCH  18  20
ENDBRANCH   1  18
TORSDOF 6
ENDMDL
MODEL 7
REMARK minimizedAffinity -6.20179653
REMARK minimizedRMSD -1
REMARK  Name = /home/tchapet/Post-Doc/ARTICLES-DOSSIERS-DES-ARTICLES-EN-REDACTION/NOUVELS-AXES-DE-RECHERCHE-A-REGARDER-URGEMMENT/ARTICLES-EN-REDACTIONS/ARTICLE_MVOTO/Paper2_Sensors_ActuatorsB/docking_rerun/ligands/1712.pdb
REMARK  6 active torsions:
REMARK  status: ('A' for Active; 'I' for Inactive)
REMARK    1  A    between atoms: C4_6  and  C5_7
REMARK    2  A    between atoms: C5_7  and  N2_8
REMARK    3  A    between atoms: N2_8  and  C6_9
REMARK    4  A    between atoms: C9_12  and  S1_15
REMARK    5  A    between atoms: S1_15  and  N3_18
REMARK    6  A    between atoms: N3_18  and  C12_19
REMARK                            x       y       z     vdW  Elec       q    Type
REMARK                         _______ _______ _______ _____ _____    ______ ____
ROOT
ATOM      1  C6  UNL     1      -1.240 -16.586  12.948  0.00  0.00    +0.027 A 
ATOM      2  C7  UNL     1      -0.284 -17.612  13.011  0.00  0.00    +0.025 A 
ATOM      3  C8  UNL     1       0.323 -18.089  11.846  0.00  0.00    +0.030 A 
ATOM      4  C9  UNL     1      -0.021 -17.552  10.600  0.00  0.00    +0.109 A 
ATOM      5  C10 UNL     1      -0.971 -16.526  10.528  0.00  0.00    +0.030 A 
ATOM      6  C11 UNL     1      -1.579 -16.046  11.693  0.00  0.00    +0.025 A 
ENDROOT
BRANCH   4   7
ATOM      7  S1  UNL     1       0.739 -18.170   9.137  0.00  0.00    +0.073 S 
ATOM      8  O2  UNL     1       0.042 -17.587   7.940  0.00  0.00    -0.150 OA
ATOM      9  O3  UNL     1       0.640 -19.668   9.083  0.00  0.00    -0.150 OA
BRANCH   7  10
ATOM     10  N3  UNL     1       2.411 -17.715   9.108  0.00  0.00    -0.199 N 
ATOM     11  H8  UNL     1       2.647 -16.709   8.956  0.00  0.00    +0.175 HD
BRANCH  10  12
ATOM     12  C12 UNL     1       3.459 -18.671   9.311  0.00  0.00    +0.138 A 
ATOM     13  C13 UNL     1       3.806 -19.071  10.608  0.00  0.00    +0.045 A 
ATOM     14  C14 UNL     1       4.825 -20.010  10.787  0.00  0.00    +0.005 A 
ATOM     15  C15 UNL     1       5.485 -20.540   9.677  0.00  0.00    +0.020 A 
ATOM     16  C16 UNL     1       5.114 -20.119   8.399  0.00  0.00    +0.113 A 
ATOM     17  N4  UNL     1       4.121 -19.204   8.244  0.00  0.00    -0.239 NA
ENDBRANCH  10  12
ENDBRANCH   7  10
ENDBRANCH   4   7
BRANCH   1  18
ATOM     18  N2  UNL     1      -1.846 -16.114  14.166  0.00  0.00    -0.340 N 
ATOM     19  H3  UNL     1      -2.841 -15.794  14.128  0.00  0.00    +0.146 HD
BRANCH  18  20
ATOM     20  C5  UNL     1      -1.146 -16.091  15.453  0.00  0.00    +0.143 C 
BRANCH  20  26
ATOM     21  O1  UNL     1       0.348 -13.882  13.847  0.00  0.00    -0.268 OA
ATOM     22  C1  UNL     1      -0.089 -13.700  15.013  0.00  0.00    +0.266 C 
ATOM     23  N1  UNL     1       0.019 -12.467  15.718  0.00  0.00    -0.176 NA
ATOM     24  C2  UNL     1      -0.564 -12.720  16.847  0.00  0.00    +0.066 A 
ATOM     25  C3  UNL     1      -1.051 -14.021  16.948  0.00  0.00    +0.024 A 
ATOM     26  C4  UNL     1      -0.775 -14.688  15.832  0.00  0.00    +0.043 C 
ATOM     27  C17 UNL     1      -1.722 -14.411  18.110  0.00  0.00    +0.048 A 
ATOM     28  S2  UNL     1      -2.430 -15.873  18.540  0.00  0.00    -0.075 S 
ATOM     29  C18 UNL     1      -2.924 -15.289  20.049  0.00  0.00    +0.157 A 
ATOM     30  N5  UNL     1      -2.561 -13.996  20.234  0.00  0.00    -0.247 NA
ATOM     31  C19 UNL     1      -1.893 -13.509  19.157  0.00  0.00    +0.079 A 
ATOM     32  C20 UNL     1      -1.398 -12.197  19.063  0.00  0.00    +0.031 A 
ATOM     33  C21 UNL     1      -0.724 -11.794  17.892  0.00  0.00    +0.028 A 
ENDBRANCH  20  26
ENDBRANCH  18  20
ENDBRANCH   1  18
TORSDOF 6
ENDMDL
MODEL 8
REMARK minimizedAffinity -6.19671011
REMARK minimizedRMSD -1
REMARK  Name = /home/tchapet/Post-Doc/ARTICLES-DOSSIERS-DES-ARTICLES-EN-REDACTION/NOUVELS-AXES-DE-RECHERCHE-A-REGARDER-URGEMMENT/ARTICLES-EN-REDACTIONS/ARTICLE_MVOTO/Paper2_Sensors_ActuatorsB/docking_rerun/ligands/1712.pdb
REMARK  6 active torsions:
REMARK  status: ('A' for Active; 'I' for Inactive)
REMARK    1  A    between atoms: C4_6  and  C5_7
REMARK    2  A    between atoms: C5_7  and  N2_8
REMARK    3  A    between atoms: N2_8  and  C6_9
REMARK    4  A    between atoms: C9_12  and  S1_15
REMARK    5  A    between atoms: S1_15  and  N3_18
REMARK    6  A    between atoms: N3_18  and  C12_19
REMARK                            x       y       z     vdW  Elec       q    Type
REMARK                         _______ _______ _______ _____ _____    ______ ____
ROOT
ATOM      1  C6  UNL     1      -1.283 -14.011  13.949  0.00  0.00    +0.027 A 
ATOM      2  C7  UNL     1      -2.402 -13.536  14.652  0.00  0.00    +0.025 A 
ATOM      3  C8  UNL     1      -2.243 -12.691  15.754  0.00  0.00    +0.030 A 
ATOM      4  C9  UNL     1      -0.962 -12.314  16.173  0.00  0.00    +0.109 A 
ATOM      5  C10 UNL     1       0.159 -12.779  15.476  0.00  0.00    +0.030 A 
ATOM      6  C11 UNL     1       0.002 -13.624  14.372  0.00  0.00    +0.025 A 
ENDROOT
BRANCH   4   7
ATOM      7  S1  UNL     1      -0.770 -11.261  17.572  0.00  0.00    +0.073 S 
ATOM      8  O2  UNL     1      -1.570 -10.007  17.354  0.00  0.00    -0.150 OA
ATOM      9  O3  UNL     1       0.675 -10.896  17.764  0.00  0.00    -0.150 OA
BRANCH   7  10
ATOM     10  N3  UNL     1      -1.341 -12.067  18.996  0.00  0.00    -0.199 N 
ATOM     11  H8  UNL     1      -1.808 -11.494  19.734  0.00  0.00    +0.175 HD
BRANCH  10  12
ATOM     12  C12 UNL     1      -1.209 -13.483  19.168  0.00  0.00    +0.138 A 
ATOM     13  C13 UNL     1      -2.350 -14.283  19.313  0.00  0.00    +0.045 A 
ATOM     14  C14 UNL     1      -2.204 -15.664  19.472  0.00  0.00    +0.005 A 
ATOM     15  C15 UNL     1      -0.929 -16.231  19.484  0.00  0.00    +0.020 A 
ATOM     16  C16 UNL     1       0.186 -15.405  19.337  0.00  0.00    +0.113 A 
ATOM     17  N4  UNL     1       0.025 -14.064  19.184  0.00  0.00    -0.239 NA
ENDBRANCH  10  12
ENDBRANCH   7  10
ENDBRANCH   4   7
BRANCH   1  18
ATOM     18  N2  UNL     1      -1.481 -14.877  12.816  0.00  0.00    -0.340 N 
ATOM     19  H3  UNL     1      -1.370 -14.469  11.859  0.00  0.00    +0.146 HD
BRANCH  18  20
ATOM     20  C5  UNL     1      -1.797 -16.302  12.942  0.00  0.00    +0.143 C 
BRANCH  20  26
ATOM     21  O1  UNL     1      -0.190 -17.178  15.461  0.00  0.00    -0.268 OA
ATOM     22  C1  UNL     1       0.143 -17.505  14.293  0.00  0.00    +0.266 C 
ATOM     23  N1  UNL     1       1.263 -18.329  13.987  0.00  0.00    -0.176 NA
ATOM     24  C2  UNL     1       1.223 -18.416  12.695  0.00  0.00    +0.066 A 
ATOM     25  C3  UNL     1       0.165 -17.717  12.117  0.00  0.00    +0.024 A 
ATOM     26  C4  UNL     1      -0.542 -17.116  13.068  0.00  0.00    +0.043 C 
ATOM     27  C17 UNL     1      -0.001 -17.752  10.731  0.00  0.00    +0.048 A 
ATOM     28  S2  UNL     1      -1.157 -17.043   9.738  0.00  0.00    -0.075 S 
ATOM     29  C18 UNL     1      -0.471 -17.688   8.333  0.00  0.00    +0.157 A 
ATOM     30  N5  UNL     1       0.627 -18.437   8.604  0.00  0.00    -0.247 NA
ATOM     31  C19 UNL     1       0.887 -18.472   9.937  0.00  0.00    +0.079 A 
ATOM     32  C20 UNL     1       1.960 -19.175  10.512  0.00  0.00    +0.031 A 
ATOM     33  C21 UNL     1       2.132 -19.149  11.912  0.00  0.00    +0.028 A 
ENDBRANCH  20  26
ENDBRANCH  18  20
ENDBRANCH   1  18
TORSDOF 6
ENDMDL
MODEL 9
REMARK minimizedAffinity -6.19391203
REMARK minimizedRMSD -1
REMARK  Name = /home/tchapet/Post-Doc/ARTICLES-DOSSIERS-DES-ARTICLES-EN-REDACTION/NOUVELS-AXES-DE-RECHERCHE-A-REGARDER-URGEMMENT/ARTICLES-EN-REDACTIONS/ARTICLE_MVOTO/Paper2_Sensors_ActuatorsB/docking_rerun/ligands/1712.pdb
REMARK  6 active torsions:
REMARK  status: ('A' for Active; 'I' for Inactive)
REMARK    1  A    between atoms: C4_6  and  C5_7
REMARK    2  A    between atoms: C5_7  and  N2_8
REMARK    3  A    between atoms: N2_8  and  C6_9
REMARK    4  A    between atoms: C9_12  and  S1_15
REMARK    5  A    between atoms: S1_15  and  N3_18
REMARK    6  A    between atoms: N3_18  and  C12_19
REMARK                            x       y       z     vdW  Elec       q    Type
REMARK                         _______ _______ _______ _____ _____    ______ ____
ROOT
ATOM      1  C6  UNL     1       4.027 -15.406  32.181  0.00  0.00    +0.027 A 
ATOM      2  C7  UNL     1       3.419 -14.145  32.287  0.00  0.00    +0.025 A 
ATOM      3  C8  UNL     1       4.117 -13.063  32.832  0.00  0.00    +0.030 A 
ATOM      4  C9  UNL     1       5.431 -13.228  33.284  0.00  0.00    +0.109 A 
ATOM      5  C10 UNL     1       6.047 -14.481  33.179  0.00  0.00    +0.030 A 
ATOM      6  C11 UNL     1       5.351 -15.564  32.634  0.00  0.00    +0.025 A 
ENDROOT
BRANCH   4   7
ATOM      7  S1  UNL     1       6.297 -11.863  33.982  0.00  0.00    +0.073 S 
ATOM      8  O2  UNL     1       7.598 -12.349  34.556  0.00  0.00    -0.150 OA
ATOM      9  O3  UNL     1       5.485 -11.225  35.074  0.00  0.00    -0.150 OA
BRANCH   7  10
ATOM     10  N3  UNL     1       6.615 -10.681  32.755  0.00  0.00    -0.199 N 
ATOM     11  H8  UNL     1       6.663  -9.676  33.038  0.00  0.00    +0.175 HD
BRANCH  10  12
ATOM     12  C12 UNL     1       6.836 -11.049  31.388  0.00  0.00    +0.138 A 
ATOM     13  C13 UNL     1       6.095 -10.441  30.367  0.00  0.00    +0.045 A 
ATOM     14  C14 UNL     1       6.329 -10.806  29.039  0.00  0.00    +0.005 A 
ATOM     15  C15 UNL     1       7.294 -11.769  28.742  0.00  0.00    +0.020 A 
ATOM     16  C16 UNL     1       8.014 -12.356  29.784  0.00  0.00    +0.113 A 
ATOM     17  N4  UNL     1       7.772 -11.988  31.070  0.00  0.00    -0.239 NA
ENDBRANCH  10  12
ENDBRANCH   7  10
ENDBRANCH   4   7
BRANCH   1  18
ATOM     18  N2  UNL     1       3.283 -16.500  31.613  0.00  0.00    -0.340 N 
ATOM     19  H3  UNL     1       2.393 -16.786  32.084  0.00  0.00    +0.146 HD
BRANCH  18  20
ATOM     20  C5  UNL     1       3.695 -17.204  30.397  0.00  0.00    +0.143 C 
BRANCH  20  26
ATOM     21  O1  UNL     1       1.298 -15.745  29.049  0.00  0.00    -0.268 OA
ATOM     22  C1  UNL     1       2.484 -15.621  28.647  0.00  0.00    +0.266 C 
ATOM     23  N1  UNL     1       2.872 -14.786  27.561  0.00  0.00    -0.176 NA
ATOM     24  C2  UNL     1       4.157 -14.949  27.506  0.00  0.00    +0.066 A 
ATOM     25  C3  UNL     1       4.653 -15.824  28.470  0.00  0.00    +0.024 A 
ATOM     26  C4  UNL     1       3.650 -16.286  29.210  0.00  0.00    +0.043 C 
ATOM     27  C17 UNL     1       6.027 -16.065  28.530  0.00  0.00    +0.048 A 
ATOM     28  S2  UNL     1       6.935 -17.037  29.558  0.00  0.00    -0.075 S 
ATOM     29  C18 UNL     1       8.392 -16.620  28.807  0.00  0.00    +0.157 A 
ATOM     30  N5  UNL     1       8.202 -15.750  27.784  0.00  0.00    -0.247 NA
ATOM     31  C19 UNL     1       6.888 -15.443  27.631  0.00  0.00    +0.079 A 
ATOM     32  C20 UNL     1       6.393 -14.564  26.652  0.00  0.00    +0.031 A 
ATOM     33  C21 UNL     1       5.007 -14.311  26.588  0.00  0.00    +0.028 A 
ENDBRANCH  20  26
ENDBRANCH  18  20
ENDBRANCH   1  18
TORSDOF 6
ENDMDL
