MODEL 1
REMARK minimizedAffinity -6.82601833
REMARK minimizedRMSD -1
REMARK  Name = /home/tchapet/Post-Doc/ARTICLES-DOSSIERS-DES-ARTICLES-EN-REDACTION/NOUVELS-AXES-DE-RECHERCHE-A-REGARDER-URGEMMENT/ARTICLES-EN-REDACTIONS/ARTICLE_MVOTO/Paper2_Sensors_ActuatorsB/docking_rerun/ligands/1712.pdb
REMARK  6 active torsions:
REMARK  status: ('A' for Active; 'I' for Inactive)
REMARK    1  A    between atoms: C4_6  and  C5_7
REMARK    2  A    between atoms: C5_7  and  N2_8
REMARK    3  A    between atoms: N2_8  and  C6_9
REMARK    4  A    between atoms: C9_12  and  S1_15
REMARK    5  A    between atoms: S1_15  and  N3_18
REMARK    6  A    between atoms: N3_18  and  C12_19
REMARK                            x       y       z     vdW  Elec       q    Type
REMARK                         _______ _______ _______ _____ _____    ______ ____
ROOT
ATOM      1  C6  UNL     1       6.435  17.794  23.487  0.00  0.00    +0.027 A 
ATOM      2  C7  UNL     1       5.659  18.524  24.401  0.00  0.00    +0.025 A 
ATOM      3  C8  UNL     1       6.266  19.234  25.441  0.00  0.00    +0.030 A 
ATOM      4  C9  UNL     1       7.658  19.218  25.586  0.00  0.00    +0.109 A 
ATOM      5  C10 UNL     1       8.440  18.495  24.677  0.00  0.00    +0.030 A 
ATOM      6  C11 UNL     1       7.834  17.785  23.635  0.00  0.00    +0.025 A 
ENDROOT
BRANCH   4   7
ATOM      7  S1  UNL     1       8.413  20.103  26.907  0.00  0.00    +0.073 S 
ATOM      8  O2  UNL     1       7.435  21.109  27.445  0.00  0.00    -0.150 OA
ATOM      9  O3  UNL     1       9.643  20.821  26.427  0.00  0.00    -0.150 OA
BRANCH   7  10
ATOM     10  N3  UNL     1       8.861  19.003  28.170  0.00  0.00    -0.199 N 
ATOM     11  H8  UNL     1       9.829  18.611  28.162  0.00  0.00    +0.175 HD
BRANCH  10  12
ATOM     12  C12 UNL     1       7.954  18.648  29.221  0.00  0.00    +0.138 A 
ATOM     13  C13 UNL     1       6.832  17.856  28.943  0.00  0.00    +0.045 A 
ATOM     14  C14 UNL     1       5.963  17.512  29.982  0.00  0.00    +0.005 A 
ATOM     15  C15 UNL     1       6.218  17.956  31.279  0.00  0.00    +0.020 A 
ATOM     16  C16 UNL     1       7.346  18.744  31.520  0.00  0.00    +0.113 A 
ATOM     17  N4  UNL     1       8.180  19.070  30.498  0.00  0.00    -0.239 NA
ENDBRANCH  10  12
ENDBRANCH   7  10
ENDBRANCH   4   7
BRANCH   1  18
ATOM     18  N2  UNL     1       5.779  17.075  22.425  0.00  0.00    -0.340 N 
ATOM     19  H3  UNL     1       4.738  16.977  22.467  0.00  0.00    +0.146 HD
BRANCH  18  20
ATOM     20  C5  UNL     1       6.496  16.507  21.281  0.00  0.00    +0.143 C 
BRANCH  20  26
ATOM     21  O1  UNL     1       4.663  14.583  22.903  0.00  0.00    -0.268 OA
ATOM     22  C1  UNL     1       5.085  14.310  21.749  0.00  0.00    +0.266 C 
ATOM     23  N1  UNL     1       4.757  13.118  21.043  0.00  0.00    -0.176 NA
ATOM     24  C2  UNL     1       5.382  13.258  19.918  0.00  0.00    +0.066 A 
ATOM     25  C3  UNL     1       6.100  14.448  19.819  0.00  0.00    +0.024 A 
ATOM     26  C4  UNL     1       5.961  15.146  20.941  0.00  0.00    +0.043 C 
ATOM     27  C17 UNL     1       6.800  14.727  18.643  0.00  0.00    +0.048 A 
ATOM     28  S2  UNL     1       7.737  16.051  18.202  0.00  0.00    -0.075 S 
ATOM     29  C18 UNL     1       8.084  15.408  16.677  0.00  0.00    +0.157 A 
ATOM     30  N5  UNL     1       7.498  14.198  16.493  0.00  0.00    -0.247 NA
ATOM     31  C19 UNL     1       6.785  13.821  17.586  0.00  0.00    +0.079 A 
ATOM     32  C20 UNL     1       6.068  12.616  17.682  0.00  0.00    +0.031 A 
ATOM     33  C21 UNL     1       5.354  12.329  18.864  0.00  0.00    +0.028 A 
ENDBRANCH  20  26
ENDBRANCH  18  20
ENDBRANCH   1  18
TORSDOF 6
ENDMDL
MODEL 2
REMARK minimizedAffinity -6.65045738
REMARK minimizedRMSD -1
REMARK  Name = /home/tchapet/Post-Doc/ARTICLES-DOSSIERS-DES-ARTICLES-EN-REDACTION/NOUVELS-AXES-DE-RECHERCHE-A-REGARDER-URGEMMENT/ARTICLES-EN-REDACTIONS/ARTICLE_MVOTO/Paper2_Sensors_ActuatorsB/docking_rerun/ligands/1712.pdb
REMARK  6 active torsions:
REMARK  status: ('A' for Active; 'I' for Inactive)
REMARK    1  A    between atoms: C4_6  and  C5_7
REMARK    2  A    between atoms: C5_7  and  N2_8
REMARK    3  A    between atoms: N2_8  and  C6_9
REMARK    4  A    between atoms: C9_12  and  S1_15
REMARK    5  A    between atoms: S1_15  and  N3_18
REMARK    6  A    between atoms: N3_18  and  C12_19
REMARK                            x       y       z     vdW  Elec       q    Type
REMARK                         _______ _______ _______ _____ _____    ______ ____
ROOT
ATOM      1  C6  UNL     1       4.383  13.238  18.982  0.00  0.00    +0.027 A 
ATOM      2  C7  UNL     1       4.810  12.753  20.229  0.00  0.00    +0.025 A 
ATOM      3  C8  UNL     1       5.072  13.634  21.282  0.00  0.00    +0.030 A 
ATOM      4  C9  UNL     1       4.917  15.013  21.101  0.00  0.00    +0.109 A 
ATOM      5  C10 UNL     1       4.488  15.505  19.863  0.00  0.00    +0.030 A 
ATOM      6  C11 UNL     1       4.225  14.625  18.808  0.00  0.00    +0.025 A 
ENDROOT
BRANCH   4   7
ATOM      7  S1  UNL     1       5.263  16.116  22.430  0.00  0.00    +0.073 S 
ATOM      8  O2  UNL     1       4.425  15.733  23.616  0.00  0.00    -0.150 OA
ATOM      9  O3  UNL     1       4.943  17.531  22.038  0.00  0.00    -0.150 OA
BRANCH   7  10
ATOM     10  N3  UNL     1       6.941  16.016  22.853  0.00  0.00    -0.199 N 
ATOM     11  H8  UNL     1       7.225  15.323  23.582  0.00  0.00    +0.175 HD
BRANCH  10  12
ATOM     12  C12 UNL     1       7.932  16.832  22.218  0.00  0.00    +0.138 A 
ATOM     13  C13 UNL     1       8.827  17.583  22.991  0.00  0.00    +0.045 A 
ATOM     14  C14 UNL     1       9.793  18.366  22.355  0.00  0.00    +0.005 A 
ATOM     15  C15 UNL     1       9.858  18.394  20.961  0.00  0.00    +0.020 A 
ATOM     16  C16 UNL     1       8.950  17.635  20.221  0.00  0.00    +0.113 A 
ATOM     17  N4  UNL     1       8.017  16.879  20.857  0.00  0.00    -0.239 NA
ENDBRANCH  10  12
ENDBRANCH   7  10
ENDBRANCH   4   7
BRANCH   1  18
ATOM     18  N2  UNL     1       4.119  12.304  17.918  0.00  0.00    -0.340 N 
ATOM     19  H3  UNL     1       3.126  12.173  17.614  0.00  0.00    +0.146 HD
BRANCH  18  20
ATOM     20  C5  UNL     1       5.172  11.558  17.226  0.00  0.00    +0.143 C 
BRANCH  20  26
ATOM     21  O1  UNL     1       3.519  10.499  14.810  0.00  0.00    -0.268 OA
ATOM     22  C1  UNL     1       4.392  11.398  14.696  0.00  0.00    +0.266 C 
ATOM     23  N1  UNL     1       4.704  12.053  13.471  0.00  0.00    -0.176 NA
ATOM     24  C2  UNL     1       5.628  12.895  13.812  0.00  0.00    +0.066 A 
ATOM     25  C3  UNL     1       5.953  12.854  15.166  0.00  0.00    +0.024 A 
ATOM     26  C4  UNL     1       5.218  11.927  15.772  0.00  0.00    +0.043 C 
ATOM     27  C17 UNL     1       6.919  13.731  15.663  0.00  0.00    +0.048 A 
ATOM     28  S2  UNL     1       7.524  13.944  17.217  0.00  0.00    -0.075 S 
ATOM     29  C18 UNL     1       8.574  15.179  16.732  0.00  0.00    +0.157 A 
ATOM     30  N5  UNL     1       8.474  15.435  15.404  0.00  0.00    -0.247 NA
ATOM     31  C19 UNL     1       7.554  14.630  14.811  0.00  0.00    +0.079 A 
ATOM     32  C20 UNL     1       7.235  14.673  13.443  0.00  0.00    +0.031 A 
ATOM     33  C21 UNL     1       6.256  13.794  12.934  0.00  0.00    +0.028 A 
ENDBRANCH  20  26
ENDBRANCH  18  20
ENDBRANCH   1  18
TORSDOF 6
ENDMDL
MODEL 3
REMARK minimizedAffinity -6.64393377
REMARK minimizedRMSD -1
REMARK  Name = /home/tchapet/Post-Doc/ARTICLES-DOSSIERS-DES-ARTICLES-EN-REDACTION/NOUVELS-AXES-DE-RECHERCHE-A-REGARDER-URGEMMENT/ARTICLES-EN-REDACTIONS/ARTICLE_MVOTO/Paper2_Sensors_ActuatorsB/docking_rerun/ligands/1712.pdb
REMARK  6 active torsions:
REMARK  status: ('A' for Active; 'I' for Inactive)
REMARK    1  A    between atoms: C4_6  and  C5_7
REMARK    2  A    between atoms: C5_7  and  N2_8
REMARK    3  A    between atoms: N2_8  and  C6_9
REMARK    4  A    between atoms: C9_12  and  S1_15
REMARK    5  A    between atoms: S1_15  and  N3_18
REMARK    6  A    between atoms: N3_18  and  C12_19
REMARK                            x       y       z     vdW  Elec       q    Type
REMARK                         _______ _______ _______ _____ _____    ______ ____
ROOT
ATOM      1  C6  UNL     1       7.745  16.573  21.672  0.00  0.00    +0.027 A 
ATOM      2  C7  UNL     1       8.954  17.088  22.167  0.00  0.00    +0.025 A 
ATOM      3  C8  UNL     1       8.963  17.934  23.279  0.00  0.00    +0.030 A 
ATOM      4  C9  UNL     1       7.763  18.282  23.910  0.00  0.00    +0.109 A 
ATOM      5  C10 UNL     1       6.554  17.771  23.426  0.00  0.00    +0.030 A 
ATOM      6  C11 UNL     1       6.542  16.924  22.313  0.00  0.00    +0.025 A 
ENDROOT
BRANCH   4   7
ATOM      7  S1  UNL     1       7.784  19.360  25.303  0.00  0.00    +0.073 S 
ATOM      8  O2  UNL     1       6.523  19.162  26.095  0.00  0.00    -0.150 OA
ATOM      9  O3  UNL     1       7.867  20.794  24.860  0.00  0.00    -0.150 OA
BRANCH   7  10
ATOM     10  N3  UNL     1       9.154  19.000  26.302  0.00  0.00    -0.199 N 
ATOM     11  H8  UNL     1       9.609  18.065  26.198  0.00  0.00    +0.175 HD
BRANCH  10  12
ATOM     12  C12 UNL     1       9.683  19.952  27.233  0.00  0.00    +0.138 A 
ATOM     13  C13 UNL     1      10.932  20.544  27.003  0.00  0.00    +0.045 A 
ATOM     14  C14 UNL     1      11.428  21.476  27.917  0.00  0.00    +0.005 A 
ATOM     15  C15 UNL     1      10.680  21.809  29.047  0.00  0.00    +0.020 A 
ATOM     16  C16 UNL     1       9.439  21.200  29.246  0.00  0.00    +0.113 A 
ATOM     17  N4  UNL     1       8.972  20.295  28.346  0.00  0.00    -0.239 NA
ENDBRANCH  10  12
ENDBRANCH   7  10
ENDBRANCH   4   7
BRANCH   1  18
ATOM     18  N2  UNL     1       7.768  15.703  20.526  0.00  0.00    -0.340 N 
ATOM     19  H3  UNL     1       8.529  14.987  20.467  0.00  0.00    +0.146 HD
BRANCH  18  20
ATOM     20  C5  UNL     1       6.763  15.751  19.461  0.00  0.00    +0.143 C 
BRANCH  20  26
ATOM     21  O1  UNL     1       5.309  13.727  21.326  0.00  0.00    -0.268 OA
ATOM     22  C1  UNL     1       5.525  13.497  20.108  0.00  0.00    +0.266 C 
ATOM     23  N1  UNL     1       5.111  12.312  19.436  0.00  0.00    -0.176 NA
ATOM     24  C2  UNL     1       5.520  12.500  18.222  0.00  0.00    +0.066 A 
ATOM     25  C3  UNL     1       6.173  13.716  18.032  0.00  0.00    +0.024 A 
ATOM     26  C4  UNL     1       6.217  14.382  19.181  0.00  0.00    +0.043 C 
ATOM     27  C17 UNL     1       6.642  14.048  16.759  0.00  0.00    +0.048 A 
ATOM     28  S2  UNL     1       7.445  15.414  16.198  0.00  0.00    -0.075 S 
ATOM     29  C18 UNL     1       7.532  14.820  14.616  0.00  0.00    +0.157 A 
ATOM     30  N5  UNL     1       6.959  13.596  14.504  0.00  0.00    -0.247 NA
ATOM     31  C19 UNL     1       6.465  13.168  15.695  0.00  0.00    +0.079 A 
ATOM     32  C20 UNL     1       5.813  11.937  15.881  0.00  0.00    +0.031 A 
ATOM     33  C21 UNL     1       5.331  11.596  17.162  0.00  0.00    +0.028 A 
ENDBRANCH  20  26
ENDBRANCH  18  20
ENDBRANCH   1  18
TORSDOF 6
ENDMDL
MODEL 4
REMARK minimizedAffinity -6.40804052
REMARK minimizedRMSD -1
REMARK  Name = /home/tchapet/Post-Doc/ARTICLES-DOSSIERS-DES-ARTICLES-EN-REDACTION/NOUVELS-AXES-DE-RECHERCHE-A-REGARDER-URGEMMENT/ARTICLES-EN-REDACTIONS/ARTICLE_MVOTO/Paper2_Sensors_ActuatorsB/docking_rerun/ligands/1712.pdb
REMARK  6 active torsions:
REMARK  status: ('A' for Active; 'I' for Inactive)
REMARK    1  A    between atoms: C4_6  and  C5_7
REMARK    2  A    between atoms: C5_7  and  N2_8
REMARK    3  A    between atoms: N2_8  and  C6_9
REMARK    4  A    between atoms: C9_12  and  S1_15
REMARK    5  A    between atoms: S1_15  and  N3_18
REMARK    6  A    between atoms: N3_18  and  C12_19
REMARK                            x       y       z     vdW  Elec       q    Type
REMARK                         _______ _______ _______ _____ _____    ______ ____
ROOT
ATOM      1  C6  UNL     1       4.512  15.250  20.286  0.00  0.00    +0.027 A 
ATOM      2  C7  UNL     1       4.287  15.535  18.930  0.00  0.00    +0.025 A 
ATOM      3  C8  UNL     1       4.670  14.625  17.940  0.00  0.00    +0.030 A 
ATOM      4  C9  UNL     1       5.289  13.420  18.292  0.00  0.00    +0.109 A 
ATOM      5  C10 UNL     1       5.515  13.127  19.642  0.00  0.00    +0.030 A 
ATOM      6  C11 UNL     1       5.132  14.035  20.634  0.00  0.00    +0.025 A 
ENDROOT
BRANCH   4   7
ATOM      7  S1  UNL     1       5.781  12.287  17.037  0.00  0.00    +0.073 S 
ATOM      8  O2  UNL     1       4.826  12.392  15.881  0.00  0.00    -0.150 OA
ATOM      9  O3  UNL     1       5.765  10.879  17.562  0.00  0.00    -0.150 OA
BRANCH   7  10
ATOM     10  N3  UNL     1       7.383  12.668  16.497  0.00  0.00    -0.199 N 
ATOM     11  H8  UNL     1       8.044  11.879  16.319  0.00  0.00    +0.175 HD
BRANCH  10  12
ATOM     12  C12 UNL     1       7.804  14.018  16.270  0.00  0.00    +0.138 A 
ATOM     13  C13 UNL     1       8.488  14.720  17.272  0.00  0.00    +0.045 A 
ATOM     14  C14 UNL     1       8.899  16.033  17.031  0.00  0.00    +0.005 A 
ATOM     15  C15 UNL     1       8.626  16.632  15.800  0.00  0.00    +0.020 A 
ATOM     16  C16 UNL     1       7.942  15.905  14.824  0.00  0.00    +0.113 A 
ATOM     17  N4  UNL     1       7.550  14.628  15.077  0.00  0.00    -0.239 NA
ENDBRANCH  10  12
ENDBRANCH   7  10
ENDBRANCH   4   7
BRANCH   1  18
ATOM     18  N2  UNL     1       4.104  16.207  21.282  0.00  0.00    -0.340 N 
ATOM     19  H3  UNL     1       3.375  15.916  21.974  0.00  0.00    +0.146 HD
BRANCH  18  20
ATOM     20  C5  UNL     1       4.682  17.549  21.390  0.00  0.00    +0.143 C 
BRANCH  20  26
ATOM     21  O1  UNL     1       6.633  15.965  23.228  0.00  0.00    -0.268 OA
ATOM     22  C1  UNL     1       7.029  16.697  22.284  0.00  0.00    +0.266 C 
ATOM     23  N1  UNL     1       8.398  16.864  21.928  0.00  0.00    -0.176 NA
ATOM     24  C2  UNL     1       8.344  17.671  20.916  0.00  0.00    +0.066 A 
ATOM     25  C3  UNL     1       7.050  18.054  20.571  0.00  0.00    +0.024 A 
ATOM     26  C4  UNL     1       6.182  17.483  21.399  0.00  0.00    +0.043 C 
ATOM     27  C17 UNL     1       6.858  18.905  19.481  0.00  0.00    +0.048 A 
ATOM     28  S2  UNL     1       5.454  19.536  18.805  0.00  0.00    -0.075 S 
ATOM     29  C18 UNL     1       6.304  20.380  17.611  0.00  0.00    +0.157 A 
ATOM     30  N5  UNL     1       7.643  20.191  17.715  0.00  0.00    -0.247 NA
ATOM     31  C19 UNL     1       7.949  19.372  18.754  0.00  0.00    +0.079 A 
ATOM     32  C20 UNL     1       9.258  18.995  19.101  0.00  0.00    +0.031 A 
ATOM     33  C21 UNL     1       9.461  18.131  20.197  0.00  0.00    +0.028 A 
ENDBRANCH  20  26
ENDBRANCH  18  20
ENDBRANCH   1  18
TORSDOF 6
ENDMDL
MODEL 5
REMARK minimizedAffinity -6.40152788
REMARK minimizedRMSD -1
REMARK  Name = /home/tchapet/Post-Doc/ARTICLES-DOSSIERS-DES-ARTICLES-EN-REDACTION/NOUVELS-AXES-DE-RECHERCHE-A-REGARDER-URGEMMENT/ARTICLES-EN-REDACTIONS/ARTICLE_MVOTO/Paper2_Sensors_ActuatorsB/docking_rerun/ligands/1712.pdb
REMARK  6 active torsions:
REMARK  status: ('A' for Active; 'I' for Inactive)
REMARK    1  A    between atoms: C4_6  and  C5_7
REMARK    2  A    between atoms: C5_7  and  N2_8
REMARK    3  A    between atoms: N2_8  and  C6_9
REMARK    4  A    between atoms: C9_12  and  S1_15
REMARK    5  A    between atoms: S1_15  and  N3_18
REMARK    6  A    between atoms: N3_18  and  C12_19
REMARK                            x       y       z     vdW  Elec       q    Type
REMARK                         _______ _______ _______ _____ _____    ______ ____
ROOT
ATOM      1  C6  UNL     1       4.865  13.562  18.148  0.00  0.00    +0.027 A 
ATOM      2  C7  UNL     1       4.476  14.891  18.382  0.00  0.00    +0.025 A 
ATOM      3  C8  UNL     1       4.441  15.403  19.683  0.00  0.00    +0.030 A 
ATOM      4  C9  UNL     1       4.789  14.591  20.769  0.00  0.00    +0.109 A 
ATOM      5  C10 UNL     1       5.182  13.267  20.545  0.00  0.00    +0.030 A 
ATOM      6  C11 UNL     1       5.218  12.753  19.244  0.00  0.00    +0.025 A 
ENDROOT
BRANCH   4   7
ATOM      7  S1  UNL     1       4.728  15.241  22.404  0.00  0.00    +0.073 S 
ATOM      8  O2  UNL     1       5.520  14.347  23.316  0.00  0.00    -0.150 OA
ATOM      9  O3  UNL     1       3.309  15.309  22.893  0.00  0.00    -0.150 OA
BRANCH   7  10
ATOM     10  N3  UNL     1       5.408  16.835  22.428  0.00  0.00    -0.199 N 
ATOM     11  H8  UNL     1       4.802  17.625  22.744  0.00  0.00    +0.175 HD
BRANCH  10  12
ATOM     12  C12 UNL     1       6.768  17.084  22.054  0.00  0.00    +0.138 A 
ATOM     13  C13 UNL     1       7.805  16.826  22.961  0.00  0.00    +0.045 A 
ATOM     14  C14 UNL     1       9.127  17.067  22.577  0.00  0.00    +0.005 A 
ATOM     15  C15 UNL     1       9.402  17.558  21.300  0.00  0.00    +0.020 A 
ATOM     16  C16 UNL     1       8.345  17.804  20.422  0.00  0.00    +0.113 A 
ATOM     17  N4  UNL     1       7.065  17.565  20.813  0.00  0.00    -0.239 NA
ENDBRANCH  10  12
ENDBRANCH   7  10
ENDBRANCH   4   7
BRANCH   1  18
ATOM     18  N2  UNL     1       4.894  13.066  16.797  0.00  0.00    -0.340 N 
ATOM     19  H3  UNL     1       4.001  13.071  16.252  0.00  0.00    +0.146 HD
BRANCH  18  20
ATOM     20  C5  UNL     1       6.115  12.587  16.145  0.00  0.00    +0.143 C 
BRANCH  20  26
ATOM     21  O1  UNL     1       8.205  14.381  17.595  0.00  0.00    -0.268 OA
ATOM     22  C1  UNL     1       7.915  14.520  16.379  0.00  0.00    +0.266 C 
ATOM     23  N1  UNL     1       8.521  15.483  15.522  0.00  0.00    -0.176 NA
ATOM     24  C2  UNL     1       7.945  15.268  14.381  0.00  0.00    +0.066 A 
ATOM     25  C3  UNL     1       7.007  14.240  14.411  0.00  0.00    +0.024 A 
ATOM     26  C4  UNL     1       6.935  13.738  15.639  0.00  0.00    +0.043 C 
ATOM     27  C17 UNL     1       6.334  13.895  13.237  0.00  0.00    +0.048 A 
ATOM     28  S2  UNL     1       5.173  12.719  12.932  0.00  0.00    -0.075 S 
ATOM     29  C18 UNL     1       5.053  13.136  11.297  0.00  0.00    +0.157 A 
ATOM     30  N5  UNL     1       5.884  14.159  10.975  0.00  0.00    -0.247 NA
ATOM     31  C19 UNL     1       6.594  14.580  12.053  0.00  0.00    +0.079 A 
ATOM     32  C20 UNL     1       7.536  15.623  12.018  0.00  0.00    +0.031 A 
ATOM     33  C21 UNL     1       8.224  15.973  13.198  0.00  0.00    +0.028 A 
ENDBRANCH  20  26
ENDBRANCH  18  20
ENDBRANCH   1  18
TORSDOF 6
ENDMDL
MODEL 6
REMARK minimizedAffinity -6.34573555
REMARK minimizedRMSD -1
REMARK  Name = /home/tchapet/Post-Doc/ARTICLES-DOSSIERS-DES-ARTICLES-EN-REDACTION/NOUVELS-AXES-DE-RECHERCHE-A-REGARDER-URGEMMENT/ARTICLES-EN-REDACTIONS/ARTICLE_MVOTO/Paper2_Sensors_ActuatorsB/docking_rerun/ligands/1712.pdb
REMARK  6 active torsions:
REMARK  status: ('A' for Active; 'I' for Inactive)
REMARK    1  A    between atoms: C4_6  and  C5_7
REMARK    2  A    between atoms: C5_7  and  N2_8
REMARK    3  A    between atoms: N2_8  and  C6_9
REMARK    4  A    between atoms: C9_12  and  S1_15
REMARK    5  A    between atoms: S1_15  and  N3_18
REMARK    6  A    between atoms: N3_18  and  C12_19
REMARK                            x       y       z     vdW  Elec       q    Type
REMARK                         _______ _______ _______ _____ _____    ______ ____
ROOT
ATOM      1  C6  UNL     1       4.422  13.182  18.928  0.00  0.00    +0.027 A 
ATOM      2  C7  UNL     1       4.430  14.570  18.716  0.00  0.00    +0.025 A 
ATOM      3  C8  UNL     1       4.737  15.447  19.760  0.00  0.00    +0.030 A 
ATOM      4  C9  UNL     1       5.033  14.949  21.034  0.00  0.00    +0.109 A 
ATOM      5  C10 UNL     1       5.031  13.566  21.254  0.00  0.00    +0.030 A 
ATOM      6  C11 UNL     1       4.725  12.687  20.210  0.00  0.00    +0.025 A 
ENDROOT
BRANCH   4   7
ATOM      7  S1  UNL     1       5.405  16.062  22.347  0.00  0.00    +0.073 S 
ATOM      8  O2  UNL     1       4.595  15.682  23.555  0.00  0.00    -0.150 OA
ATOM      9  O3  UNL     1       5.070  17.473  21.954  0.00  0.00    -0.150 OA
BRANCH   7  10
ATOM     10  N3  UNL     1       7.092  15.971  22.733  0.00  0.00    -0.199 N 
ATOM     11  H8  UNL     1       7.408  15.225  23.393  0.00  0.00    +0.175 HD
BRANCH  10  12
ATOM     12  C12 UNL     1       8.050  16.867  22.156  0.00  0.00    +0.138 A 
ATOM     13  C13 UNL     1       8.910  17.603  22.981  0.00  0.00    +0.045 A 
ATOM     14  C14 UNL     1       9.844  18.466  22.400  0.00  0.00    +0.005 A 
ATOM     15  C15 UNL     1       9.911  18.586  21.012  0.00  0.00    +0.020 A 
ATOM     16  C16 UNL     1       9.038  17.838  20.220  0.00  0.00    +0.113 A 
ATOM     17  N4  UNL     1       8.136  17.004  20.802  0.00  0.00    -0.239 NA
ENDBRANCH  10  12
ENDBRANCH   7  10
ENDBRANCH   4   7
BRANCH   1  18
ATOM     18  N2  UNL     1       4.104  12.305  17.831  0.00  0.00    -0.340 N 
ATOM     19  H3  UNL     1       3.103  12.227  17.537  0.00  0.00    +0.146 HD
BRANCH  18  20
ATOM     20  C5  UNL     1       5.117  11.547  17.092  0.00  0.00    +0.143 C 
BRANCH  20  26
ATOM     21  O1  UNL     1       7.401  13.655  16.919  0.00  0.00    -0.268 OA
ATOM     22  C1  UNL     1       6.725  13.299  15.919  0.00  0.00    +0.266 C 
ATOM     23  N1  UNL     1       6.939  13.789  14.599  0.00  0.00    -0.176 NA
ATOM     24  C2  UNL     1       6.049  13.158  13.901  0.00  0.00    +0.066 A 
ATOM     25  C3  UNL     1       5.260  12.288  14.650  0.00  0.00    +0.024 A 
ATOM     26  C4  UNL     1       5.630  12.340  15.926  0.00  0.00    +0.043 C 
ATOM     27  C17 UNL     1       4.278  11.531  14.008  0.00  0.00    +0.048 A 
ATOM     28  S2  UNL     1       3.186  10.402  14.605  0.00  0.00    -0.075 S 
ATOM     29  C18 UNL     1       2.513  10.117  13.079  0.00  0.00    +0.157 A 
ATOM     30  N5  UNL     1       3.105  10.868  12.118  0.00  0.00    -0.247 NA
ATOM     31  C19 UNL     1       4.086  11.653  12.635  0.00  0.00    +0.079 A 
ATOM     32  C20 UNL     1       4.873  12.534  11.873  0.00  0.00    +0.031 A 
ATOM     33  C21 UNL     1       5.871  13.298  12.514  0.00  0.00    +0.028 A 
ENDBRANCH  20  26
ENDBRANCH  18  20
ENDBRANCH   1  18
TORSDOF 6
ENDMDL
MODEL 7
REMARK minimizedAffinity -6.31419754
REMARK minimizedRMSD -1
REMARK  Name = /home/tchapet/Post-Doc/ARTICLES-DOSSIERS-DES-ARTICLES-EN-REDACTION/NOUVELS-AXES-DE-RECHERCHE-A-REGARDER-URGEMMENT/ARTICLES-EN-REDACTIONS/ARTICLE_MVOTO/Paper2_Sensors_ActuatorsB/docking_rerun/ligands/1712.pdb
REMARK  6 active torsions:
REMARK  status: ('A' for Active; 'I' for Inactive)
REMARK    1  A    between atoms: C4_6  and  C5_7
REMARK    2  A    between atoms: C5_7  and  N2_8
REMARK    3  A    between atoms: N2_8  and  C6_9
REMARK    4  A    between atoms: C9_12  and  S1_15
REMARK    5  A    between atoms: S1_15  and  N3_18
REMARK    6  A    between atoms: N3_18  and  C12_19
REMARK                            x       y       z     vdW  Elec       q    Type
REMARK                         _______ _______ _______ _____ _____    ______ ____
ROOT
ATOM      1  C6  UNL     1      32.747   7.180  29.658  0.00  0.00    +0.027 A 
ATOM      2  C7  UNL     1      32.952   5.797  29.530  0.00  0.00    +0.025 A 
ATOM      3  C8  UNL     1      33.184   5.006  30.659  0.00  0.00    +0.030 A 
ATOM      4  C9  UNL     1      33.219   5.587  31.932  0.00  0.00    +0.109 A 
ATOM      5  C10 UNL     1      33.012   6.965  32.069  0.00  0.00    +0.030 A 
ATOM      6  C11 UNL     1      32.779   7.758  30.941  0.00  0.00    +0.025 A 
ENDROOT
BRANCH   4   7
ATOM      7  S1  UNL     1      33.526   4.585  33.347  0.00  0.00    +0.073 S 
ATOM      8  O2  UNL     1      33.816   5.474  34.523  0.00  0.00    -0.150 OA
ATOM      9  O3  UNL     1      34.703   3.682  33.109  0.00  0.00    -0.150 OA
BRANCH   7  10
ATOM     10  N3  UNL     1      32.132   3.612  33.689  0.00  0.00    -0.199 N 
ATOM     11  H8  UNL     1      31.658   3.738  34.612  0.00  0.00    +0.175 HD
BRANCH  10  12
ATOM     12  C12 UNL     1      31.612   2.674  32.740  0.00  0.00    +0.138 A 
ATOM     13  C13 UNL     1      30.439   2.966  32.032  0.00  0.00    +0.045 A 
ATOM     14  C14 UNL     1      29.951   2.043  31.104  0.00  0.00    +0.005 A 
ATOM     15  C15 UNL     1      30.631   0.844  30.892  0.00  0.00    +0.020 A 
ATOM     16  C16 UNL     1      31.797   0.584  31.615  0.00  0.00    +0.113 A 
ATOM     17  N4  UNL     1      32.257   1.494  32.514  0.00  0.00    -0.239 NA
ENDBRANCH  10  12
ENDBRANCH   7  10
ENDBRANCH   4   7
BRANCH   1  18
ATOM     18  N2  UNL     1      32.508   7.967  28.476  0.00  0.00    -0.340 N 
ATOM     19  H3  UNL     1      31.971   7.528  27.693  0.00  0.00    +0.146 HD
BRANCH  18  20
ATOM     20  C5  UNL     1      32.952   9.356  28.335  0.00  0.00    +0.143 C 
BRANCH  20  26
ATOM     21  O1  UNL     1      34.548   7.234  26.709  0.00  0.00    -0.268 OA
ATOM     22  C1  UNL     1      34.998   8.383  26.957  0.00  0.00    +0.266 C 
ATOM     23  N1  UNL     1      36.263   8.856  26.505  0.00  0.00    -0.176 NA
ATOM     24  C2  UNL     1      36.310  10.065  26.968  0.00  0.00    +0.066 A 
ATOM     25  C3  UNL     1      35.178  10.434  27.690  0.00  0.00    +0.024 A 
ATOM     26  C4  UNL     1      34.323   9.417  27.727  0.00  0.00    +0.043 C 
ATOM     27  C17 UNL     1      35.097  11.723  28.222  0.00  0.00    +0.048 A 
ATOM     28  S2  UNL     1      33.889  12.476  29.116  0.00  0.00    -0.075 S 
ATOM     29  C18 UNL     1      34.756  13.925  29.228  0.00  0.00    +0.157 A 
ATOM     30  N5  UNL     1      35.953  13.848  28.595  0.00  0.00    -0.247 NA
ATOM     31  C19 UNL     1      36.141  12.624  28.037  0.00  0.00    +0.079 A 
ATOM     32  C20 UNL     1      37.289  12.257  27.314  0.00  0.00    +0.031 A 
ATOM     33  C21 UNL     1      37.377  10.958  26.770  0.00  0.00    +0.028 A 
ENDBRANCH  20  26
ENDBRANCH  18  20
ENDBRANCH   1  18
TORSDOF 6
ENDMDL
MODEL 8
REMARK minimizedAffinity -6.31104279
REMARK minimizedRMSD -1
REMARK  Name = /home/tchapet/Post-Doc/ARTICLES-DOSSIERS-DES-ARTICLES-EN-REDACTION/NOUVELS-AXES-DE-RECHERCHE-A-REGARDER-URGEMMENT/ARTICLES-EN-REDACTIONS/ARTICLE_MVOTO/Paper2_Sensors_ActuatorsB/docking_rerun/ligands/1712.pdb
REMARK  6 active torsions:
REMARK  status: ('A' for Active; 'I' for Inactive)
REMARK    1  A    between atoms: C4_6  and  C5_7
REMARK    2  A    between atoms: C5_7  and  N2_8
REMARK    3  A    between atoms: N2_8  and  C6_9
REMARK    4  A    between atoms: C9_12  and  S1_15
REMARK    5  A    between atoms: S1_15  and  N3_18
REMARK    6  A    between atoms: N3_18  and  C12_19
REMARK                            x       y       z     vdW  Elec       q    Type
REMARK                         _______ _______ _______ _____ _____    ______ ____
ROOT
ATOM      1  C6  UNL     1       7.534  18.865  22.983  0.00  0.00    +0.027 A 
ATOM      2  C7  UNL     1       8.093  18.042  23.973  0.00  0.00    +0.025 A 
ATOM      3  C8  UNL     1       8.425  18.564  25.227  0.00  0.00    +0.030 A 
ATOM      4  C9  UNL     1       8.208  19.918  25.505  0.00  0.00    +0.109 A 
ATOM      5  C10 UNL     1       7.648  20.746  24.525  0.00  0.00    +0.030 A 
ATOM      6  C11 UNL     1       7.314  20.225  23.270  0.00  0.00    +0.025 A 
ENDROOT
BRANCH   4   7
ATOM      7  S1  UNL     1       8.643  20.570  27.083  0.00  0.00    +0.073 S 
ATOM      8  O2  UNL     1       7.481  21.354  27.626  0.00  0.00    -0.150 OA
ATOM      9  O3  UNL     1       9.837  21.475  26.969  0.00  0.00    -0.150 OA
BRANCH   7  10
ATOM     10  N3  UNL     1       9.021  19.274  28.169  0.00  0.00    -0.199 N 
ATOM     11  H8  UNL     1       9.972  18.843  28.111  0.00  0.00    +0.175 HD
BRANCH  10  12
ATOM     12  C12 UNL     1       8.083  18.806  29.145  0.00  0.00    +0.138 A 
ATOM     13  C13 UNL     1       7.043  17.947  28.766  0.00  0.00    +0.045 A 
ATOM     14  C14 UNL     1       6.141  17.494  29.732  0.00  0.00    +0.005 A 
ATOM     15  C15 UNL     1       6.284  17.898  31.060  0.00  0.00    +0.020 A 
ATOM     16  C16 UNL     1       7.332  18.754  31.404  0.00  0.00    +0.113 A 
ATOM     17  N4  UNL     1       8.199  19.186  30.450  0.00  0.00    -0.239 NA
ENDBRANCH  10  12
ENDBRANCH   7  10
ENDBRANCH   4   7
BRANCH   1  18
ATOM     18  N2  UNL     1       7.200  18.296  21.703  0.00  0.00    -0.340 N 
ATOM     19  H3  UNL     1       7.005  18.950  20.910  0.00  0.00    +0.146 HD
BRANCH  18  20
ATOM     20  C5  UNL     1       7.153  16.853  21.454  0.00  0.00    +0.143 C 
BRANCH  20  26
ATOM     21  O1  UNL     1       9.167  18.269  19.549  0.00  0.00    -0.268 OA
ATOM     22  C1  UNL     1       8.517  17.246  19.214  0.00  0.00    +0.266 C 
ATOM     23  N1  UNL     1       8.643  16.602  17.950  0.00  0.00    -0.176 NA
ATOM     24  C2  UNL     1       7.819  15.607  18.040  0.00  0.00    +0.066 A 
ATOM     25  C3  UNL     1       7.155  15.537  19.263  0.00  0.00    +0.024 A 
ATOM     26  C4  UNL     1       7.544  16.544  20.038  0.00  0.00    +0.043 C 
ATOM     27  C17 UNL     1       6.256  14.494  19.493  0.00  0.00    +0.048 A 
ATOM     28  S2  UNL     1       5.318  14.119  20.837  0.00  0.00    -0.075 S 
ATOM     29  C18 UNL     1       4.651  12.751  20.098  0.00  0.00    +0.157 A 
ATOM     30  N5  UNL     1       5.129  12.572  18.842  0.00  0.00    -0.247 NA
ATOM     31  C19 UNL     1       6.021  13.540  18.507  0.00  0.00    +0.079 A 
ATOM     32  C20 UNL     1       6.682  13.609  17.268  0.00  0.00    +0.031 A 
ATOM     33  C21 UNL     1       7.596  14.656  17.030  0.00  0.00    +0.028 A 
ENDBRANCH  20  26
ENDBRANCH  18  20
ENDBRANCH   1  18
TORSDOF 6
ENDMDL
MODEL 9
REMARK minimizedAffinity -6.26849031
REMARK minimizedRMSD -1
REMARK  Name = /home/tchapet/Post-Doc/ARTICLES-DOSSIERS-DES-ARTICLES-EN-REDACTION/NOUVELS-AXES-DE-RECHERCHE-A-REGARDER-URGEMMENT/ARTICLES-EN-REDACTIONS/ARTICLE_MVOTO/Paper2_Sensors_ActuatorsB/docking_rerun/ligands/1712.pdb
REMARK  6 active torsions:
REMARK  status: ('A' for Active; 'I' for Inactive)
REMARK    1  A    between atoms: C4_6  and  C5_7
REMARK    2  A    between atoms: C5_7  and  N2_8
REMARK    3  A    between atoms: N2_8  and  C6_9
REMARK    4  A    between atoms: C9_12  and  S1_15
REMARK    5  A    between atoms: S1_15  and  N3_18
REMARK    6  A    between atoms: N3_18  and  C12_19
REMARK                            x       y       z     vdW  Elec       q    Type
REMARK                         _______ _______ _______ _____ _____    ______ ____
ROOT
ATOM      1  C6  UNL     1       8.111  18.502  18.679  0.00  0.00    +0.027 A 
ATOM      2  C7  UNL     1       6.936  18.287  17.940  0.00  0.00    +0.025 A 
ATOM      3  C8  UNL     1       6.847  17.219  17.043  0.00  0.00    +0.030 A 
ATOM      4  C9  UNL     1       7.933  16.353  16.867  0.00  0.00    +0.109 A 
ATOM      5  C10 UNL     1       9.106  16.558  17.603  0.00  0.00    +0.030 A 
ATOM      6  C11 UNL     1       9.198  17.625  18.501  0.00  0.00    +0.025 A 
ENDROOT
BRANCH   4   7
ATOM      7  S1  UNL     1       7.816  15.018  15.725  0.00  0.00    +0.073 S 
ATOM      8  O2  UNL     1       9.046  15.003  14.862  0.00  0.00    -0.150 OA
ATOM      9  O3  UNL     1       6.604  15.176  14.851  0.00  0.00    -0.150 OA
BRANCH   7  10
ATOM     10  N3  UNL     1       7.697  13.518  16.585  0.00  0.00    -0.199 N 
ATOM     11  H8  UNL     1       8.440  12.801  16.430  0.00  0.00    +0.175 HD
BRANCH  10  12
ATOM     12  C12 UNL     1       6.632  13.257  17.507  0.00  0.00    +0.138 A 
ATOM     13  C13 UNL     1       6.751  13.647  18.848  0.00  0.00    +0.045 A 
ATOM     14  C14 UNL     1       5.699  13.391  19.731  0.00  0.00    +0.005 A 
ATOM     15  C15 UNL     1       4.546  12.753  19.274  0.00  0.00    +0.020 A 
ATOM     16  C16 UNL     1       4.461  12.378  17.932  0.00  0.00    +0.113 A 
ATOM     17  N4  UNL     1       5.494  12.634  17.087  0.00  0.00    -0.239 NA
ENDBRANCH  10  12
ENDBRANCH   7  10
ENDBRANCH   4   7
BRANCH   1  18
ATOM     18  N2  UNL     1       8.171  19.610  19.597  0.00  0.00    -0.340 N 
ATOM     19  H3  UNL     1       8.806  20.407  19.364  0.00  0.00    +0.146 HD
BRANCH  18  20
ATOM     20  C5  UNL     1       7.363  19.684  20.817  0.00  0.00    +0.143 C 
BRANCH  20  26
ATOM     21  O1  UNL     1       9.636  18.154  22.294  0.00  0.00    -0.268 OA
ATOM     22  C1  UNL     1       8.458  17.718  22.219  0.00  0.00    +0.266 C 
ATOM     23  N1  UNL     1       8.021  16.503  22.819  0.00  0.00    -0.176 NA
ATOM     24  C2  UNL     1       6.764  16.455  22.508  0.00  0.00    +0.066 A 
ATOM     25  C3  UNL     1       6.331  17.541  21.751  0.00  0.00    +0.024 A 
ATOM     26  C4  UNL     1       7.351  18.363  21.529  0.00  0.00    +0.043 C 
ATOM     27  C17 UNL     1       4.989  17.618  21.373  0.00  0.00    +0.048 A 
ATOM     28  S2  UNL     1       4.155  18.777  20.486  0.00  0.00    -0.075 S 
ATOM     29  C18 UNL     1       2.688  17.944  20.613  0.00  0.00    +0.157 A 
ATOM     30  N5  UNL     1       2.819  16.794  21.320  0.00  0.00    -0.247 NA
ATOM     31  C19 UNL     1       4.098  16.614  21.742  0.00  0.00    +0.079 A 
ATOM     32  C20 UNL     1       4.530  15.512  22.500  0.00  0.00    +0.031 A 
ATOM     33  C21 UNL     1       5.882  15.430  22.891  0.00  0.00    +0.028 A 
ENDBRANCH  20  26
ENDBRANCH  18  20
ENDBRANCH   1  18
TORSDOF 6
ENDMDL
