MODEL 1
REMARK minimizedAffinity -6.92842817
REMARK minimizedRMSD -1
REMARK  Name = /home/tchapet/Post-Doc/ARTICLES-DOSSIERS-DES-ARTICLES-EN-REDACTION/NOUVELS-AXES-DE-RECHERCHE-A-REGARDER-URGEMMENT/ARTICLES-EN-REDACTIONS/ARTICLE_MVOTO/Paper2_Sensors_ActuatorsB/docking_rerun/ligands/1712.pdb
REMARK  6 active torsions:
REMARK  status: ('A' for Active; 'I' for Inactive)
REMARK    1  A    between atoms: C4_6  and  C5_7
REMARK    2  A    between atoms: C5_7  and  N2_8
REMARK    3  A    between atoms: N2_8  and  C6_9
REMARK    4  A    between atoms: C9_12  and  S1_15
REMARK    5  A    between atoms: S1_15  and  N3_18
REMARK    6  A    between atoms: N3_18  and  C12_19
REMARK                            x       y       z     vdW  Elec       q    Type
REMARK                         _______ _______ _______ _____ _____    ______ ____
ROOT
ATOM      1  C6  UNL     1      15.695   4.704  11.201  0.00  0.00    +0.027 A 
ATOM      2  C7  UNL     1      15.275   3.460  10.705  0.00  0.00    +0.025 A 
ATOM      3  C8  UNL     1      14.903   3.318   9.365  0.00  0.00    +0.030 A 
ATOM      4  C9  UNL     1      14.941   4.420   8.503  0.00  0.00    +0.109 A 
ATOM      5  C10 UNL     1      15.363   5.664   8.989  0.00  0.00    +0.030 A 
ATOM      6  C11 UNL     1      15.735   5.807  10.329  0.00  0.00    +0.025 A 
ENDROOT
BRANCH   4   7
ATOM      7  S1  UNL     1      14.457   4.236   6.820  0.00  0.00    +0.073 S 
ATOM      8  O2  UNL     1      12.983   3.951   6.763  0.00  0.00    -0.150 OA
ATOM      9  O3  UNL     1      15.203   3.100   6.178  0.00  0.00    -0.150 OA
BRANCH   7  10
ATOM     10  N3  UNL     1      14.796   5.695   5.949  0.00  0.00    -0.199 N 
ATOM     11  H8  UNL     1      15.765   5.840   5.587  0.00  0.00    +0.175 HD
BRANCH  10  12
ATOM     12  C12 UNL     1      13.785   6.679   5.697  0.00  0.00    +0.138 A 
ATOM     13  C13 UNL     1      13.433   7.597   6.694  0.00  0.00    +0.045 A 
ATOM     14  C14 UNL     1      12.451   8.555   6.429  0.00  0.00    +0.005 A 
ATOM     15  C15 UNL     1      11.832   8.588   5.179  0.00  0.00    +0.020 A 
ATOM     16  C16 UNL     1      12.206   7.657   4.208  0.00  0.00    +0.113 A 
ATOM     17  N4  UNL     1      13.163   6.732   4.484  0.00  0.00    -0.239 NA
ENDBRANCH  10  12
ENDBRANCH   7  10
ENDBRANCH   4   7
BRANCH   1  18
ATOM     18  N2  UNL     1      16.074   4.816  12.586  0.00  0.00    -0.340 N 
ATOM     19  H3  UNL     1      15.593   4.198  13.280  0.00  0.00    +0.146 HD
BRANCH  18  20
ATOM     20  C5  UNL     1      17.119   5.728  13.060  0.00  0.00    +0.143 C 
BRANCH  20  26
ATOM     21  O1  UNL     1      14.335   7.116  13.176  0.00  0.00    -0.268 OA
ATOM     22  C1  UNL     1      15.229   7.309  14.040  0.00  0.00    +0.266 C 
ATOM     23  N1  UNL     1      15.067   8.150  15.177  0.00  0.00    -0.176 NA
ATOM     24  C2  UNL     1      16.204   8.045  15.789  0.00  0.00    +0.066 A 
ATOM     25  C3  UNL     1      17.109   7.200  15.149  0.00  0.00    +0.024 A 
ATOM     26  C4  UNL     1      16.558   6.716  14.041  0.00  0.00    +0.043 C 
ATOM     27  C17 UNL     1      18.364   6.984  15.722  0.00  0.00    +0.048 A 
ATOM     28  S2  UNL     1      19.658   6.034  15.224  0.00  0.00    -0.075 S 
ATOM     29  C18 UNL     1      20.604   6.471  16.557  0.00  0.00    +0.157 A 
ATOM     30  N5  UNL     1      19.952   7.330  17.379  0.00  0.00    -0.247 NA
ATOM     31  C19 UNL     1      18.708   7.614  16.914  0.00  0.00    +0.079 A 
ATOM     32  C20 UNL     1      17.802   8.473  17.562  0.00  0.00    +0.031 A 
ATOM     33  C21 UNL     1      16.531   8.692  16.993  0.00  0.00    +0.028 A 
ENDBRANCH  20  26
ENDBRANCH  18  20
ENDBRANCH   1  18
TORSDOF 6
ENDMDL
MODEL 2
REMARK minimizedAffinity -6.90048933
REMARK minimizedRMSD -1
REMARK  Name = /home/tchapet/Post-Doc/ARTICLES-DOSSIERS-DES-ARTICLES-EN-REDACTION/NOUVELS-AXES-DE-RECHERCHE-A-REGARDER-URGEMMENT/ARTICLES-EN-REDACTIONS/ARTICLE_MVOTO/Paper2_Sensors_ActuatorsB/docking_rerun/ligands/1712.pdb
REMARK  6 active torsions:
REMARK  status: ('A' for Active; 'I' for Inactive)
REMARK    1  A    between atoms: C4_6  and  C5_7
REMARK    2  A    between atoms: C5_7  and  N2_8
REMARK    3  A    between atoms: N2_8  and  C6_9
REMARK    4  A    between atoms: C9_12  and  S1_15
REMARK    5  A    between atoms: S1_15  and  N3_18
REMARK    6  A    between atoms: N3_18  and  C12_19
REMARK                            x       y       z     vdW  Elec       q    Type
REMARK                         _______ _______ _______ _____ _____    ______ ____
ROOT
ATOM      1  C6  UNL     1     -21.461 -30.658   8.391  0.00  0.00    +0.027 A 
ATOM      2  C7  UNL     1     -20.125 -30.634   8.823  0.00  0.00    +0.025 A 
ATOM      3  C8  UNL     1     -19.790 -31.041  10.117  0.00  0.00    +0.030 A 
ATOM      4  C9  UNL     1     -20.786 -31.472  11.001  0.00  0.00    +0.109 A 
ATOM      5  C10 UNL     1     -22.120 -31.502  10.577  0.00  0.00    +0.030 A 
ATOM      6  C11 UNL     1     -22.458 -31.096   9.282  0.00  0.00    +0.025 A 
ENDROOT
BRANCH   4   7
ATOM      7  S1  UNL     1     -20.356 -31.969  12.634  0.00  0.00    +0.073 S 
ATOM      8  O2  UNL     1     -19.216 -32.946  12.564  0.00  0.00    -0.150 OA
ATOM      9  O3  UNL     1     -21.526 -32.625  13.312  0.00  0.00    -0.150 OA
BRANCH   7  10
ATOM     10  N3  UNL     1     -19.872 -30.586  13.560  0.00  0.00    -0.199 N 
ATOM     11  H8  UNL     1     -20.615 -29.930  13.892  0.00  0.00    +0.175 HD
BRANCH  10  12
ATOM     12  C12 UNL     1     -18.502 -30.342  13.897  0.00  0.00    +0.138 A 
ATOM     13  C13 UNL     1     -17.583 -29.992  12.898  0.00  0.00    +0.045 A 
ATOM     14  C14 UNL     1     -16.252 -29.749  13.245  0.00  0.00    +0.005 A 
ATOM     15  C15 UNL     1     -15.850 -29.856  14.577  0.00  0.00    +0.020 A 
ATOM     16  C16 UNL     1     -16.791 -30.208  15.547  0.00  0.00    +0.113 A 
ATOM     17  N4  UNL     1     -18.082 -30.441  15.190  0.00  0.00    -0.239 NA
ENDBRANCH  10  12
ENDBRANCH   7  10
ENDBRANCH   4   7
BRANCH   1  18
ATOM     18  N2  UNL     1     -21.773 -30.235   7.050  0.00  0.00    -0.340 N 
ATOM     19  H3  UNL     1     -22.505 -29.498   6.925  0.00  0.00    +0.146 HD
BRANCH  18  20
ATOM     20  C5  UNL     1     -21.095 -30.763   5.864  0.00  0.00    +0.143 C 
BRANCH  20  26
ATOM     21  O1  UNL     1     -23.056 -28.416   5.281  0.00  0.00    -0.268 OA
ATOM     22  C1  UNL     1     -22.061 -28.670   4.553  0.00  0.00    +0.266 C 
ATOM     23  N1  UNL     1     -21.699 -27.906   3.407  0.00  0.00    -0.176 NA
ATOM     24  C2  UNL     1     -20.629 -28.500   2.981  0.00  0.00    +0.066 A 
ATOM     25  C3  UNL     1     -20.250 -29.596   3.753  0.00  0.00    +0.024 A 
ATOM     26  C4  UNL     1     -21.116 -29.760   4.748  0.00  0.00    +0.043 C 
ATOM     27  C17 UNL     1     -19.099 -30.307   3.410  0.00  0.00    +0.048 A 
ATOM     28  S2  UNL     1     -18.371 -31.644   4.123  0.00  0.00    -0.075 S 
ATOM     29  C18 UNL     1     -17.120 -31.680   2.985  0.00  0.00    +0.157 A 
ATOM     30  N5  UNL     1     -17.244 -30.689   2.067  0.00  0.00    -0.247 NA
ATOM     31  C19 UNL     1     -18.343 -29.928   2.304  0.00  0.00    +0.079 A 
ATOM     32  C20 UNL     1     -18.723 -28.826   1.517  0.00  0.00    +0.031 A 
ATOM     33  C21 UNL     1     -19.883 -28.099   1.860  0.00  0.00    +0.028 A 
ENDBRANCH  20  26
ENDBRANCH  18  20
ENDBRANCH   1  18
TORSDOF 6
ENDMDL
MODEL 3
REMARK minimizedAffinity -6.81067562
REMARK minimizedRMSD -1
REMARK  Name = /home/tchapet/Post-Doc/ARTICLES-DOSSIERS-DES-ARTICLES-EN-REDACTION/NOUVELS-AXES-DE-RECHERCHE-A-REGARDER-URGEMMENT/ARTICLES-EN-REDACTIONS/ARTICLE_MVOTO/Paper2_Sensors_ActuatorsB/docking_rerun/ligands/1712.pdb
REMARK  6 active torsions:
REMARK  status: ('A' for Active; 'I' for Inactive)
REMARK    1  A    between atoms: C4_6  and  C5_7
REMARK    2  A    between atoms: C5_7  and  N2_8
REMARK    3  A    between atoms: N2_8  and  C6_9
REMARK    4  A    between atoms: C9_12  and  S1_15
REMARK    5  A    between atoms: S1_15  and  N3_18
REMARK    6  A    between atoms: N3_18  and  C12_19
REMARK                            x       y       z     vdW  Elec       q    Type
REMARK                         _______ _______ _______ _____ _____    ______ ____
ROOT
ATOM      1  C6  UNL     1     -20.715 -30.467   8.514  0.00  0.00    +0.027 A 
ATOM      2  C7  UNL     1     -21.210 -30.032   9.753  0.00  0.00    +0.025 A 
ATOM      3  C8  UNL     1     -20.439 -30.162  10.912  0.00  0.00    +0.030 A 
ATOM      4  C9  UNL     1     -19.164 -30.735  10.849  0.00  0.00    +0.109 A 
ATOM      5  C10 UNL     1     -18.660 -31.168   9.616  0.00  0.00    +0.030 A 
ATOM      6  C11 UNL     1     -19.430 -31.039   8.456  0.00  0.00    +0.025 A 
ENDROOT
BRANCH   4   7
ATOM      7  S1  UNL     1     -18.206 -30.907  12.316  0.00  0.00    +0.073 S 
ATOM      8  O2  UNL     1     -18.178 -29.591  13.040  0.00  0.00    -0.150 OA
ATOM      9  O3  UNL     1     -16.799 -31.316  11.983  0.00  0.00    -0.150 OA
BRANCH   7  10
ATOM     10  N3  UNL     1     -18.914 -32.113  13.340  0.00  0.00    -0.199 N 
ATOM     11  H8  UNL     1     -18.780 -33.118  13.086  0.00  0.00    +0.175 HD
BRANCH  10  12
ATOM     12  C12 UNL     1     -19.644 -31.767  14.523  0.00  0.00    +0.138 A 
ATOM     13  C13 UNL     1     -21.032 -31.585  14.465  0.00  0.00    +0.045 A 
ATOM     14  C14 UNL     1     -21.730 -31.256  15.629  0.00  0.00    +0.005 A 
ATOM     15  C15 UNL     1     -21.043 -31.113  16.835  0.00  0.00    +0.020 A 
ATOM     16  C16 UNL     1     -19.660 -31.301  16.858  0.00  0.00    +0.113 A 
ATOM     17  N4  UNL     1     -18.997 -31.620  15.714  0.00  0.00    -0.239 NA
ENDBRANCH  10  12
ENDBRANCH   7  10
ENDBRANCH   4   7
BRANCH   1  18
ATOM     18  N2  UNL     1     -21.533 -30.317   7.338  0.00  0.00    -0.340 N 
ATOM     19  H3  UNL     1     -22.400 -29.737   7.413  0.00  0.00    +0.146 HD
BRANCH  18  20
ATOM     20  C5  UNL     1     -21.191 -30.909   6.042  0.00  0.00    +0.143 C 
BRANCH  20  26
ATOM     21  O1  UNL     1     -23.169 -28.560   5.535  0.00  0.00    -0.268 OA
ATOM     22  C1  UNL     1     -22.173 -28.783   4.799  0.00  0.00    +0.266 C 
ATOM     23  N1  UNL     1     -21.818 -27.981   3.677  0.00  0.00    -0.176 NA
ATOM     24  C2  UNL     1     -20.744 -28.553   3.232  0.00  0.00    +0.066 A 
ATOM     25  C3  UNL     1     -20.357 -29.671   3.968  0.00  0.00    +0.024 A 
ATOM     26  C4  UNL     1     -21.220 -29.871   4.958  0.00  0.00    +0.043 C 
ATOM     27  C17 UNL     1     -19.200 -30.362   3.602  0.00  0.00    +0.048 A 
ATOM     28  S2  UNL     1     -18.462 -31.715   4.273  0.00  0.00    -0.075 S 
ATOM     29  C18 UNL     1     -17.212 -31.706   3.133  0.00  0.00    +0.157 A 
ATOM     30  N5  UNL     1     -17.344 -30.688   2.246  0.00  0.00    -0.247 NA
ATOM     31  C19 UNL     1     -18.449 -29.942   2.508  0.00  0.00    +0.079 A 
ATOM     32  C20 UNL     1     -18.838 -28.819   1.757  0.00  0.00    +0.031 A 
ATOM     33  C21 UNL     1     -20.002 -28.112   2.123  0.00  0.00    +0.028 A 
ENDBRANCH  20  26
ENDBRANCH  18  20
ENDBRANCH   1  18
TORSDOF 6
ENDMDL
MODEL 4
REMARK minimizedAffinity -6.6681838
REMARK minimizedRMSD -1
REMARK  Name = /home/tchapet/Post-Doc/ARTICLES-DOSSIERS-DES-ARTICLES-EN-REDACTION/NOUVELS-AXES-DE-RECHERCHE-A-REGARDER-URGEMMENT/ARTICLES-EN-REDACTIONS/ARTICLE_MVOTO/Paper2_Sensors_ActuatorsB/docking_rerun/ligands/1712.pdb
REMARK  6 active torsions:
REMARK  status: ('A' for Active; 'I' for Inactive)
REMARK    1  A    between atoms: C4_6  and  C5_7
REMARK    2  A    between atoms: C5_7  and  N2_8
REMARK    3  A    between atoms: N2_8  and  C6_9
REMARK    4  A    between atoms: C9_12  and  S1_15
REMARK    5  A    between atoms: S1_15  and  N3_18
REMARK    6  A    between atoms: N3_18  and  C12_19
REMARK                            x       y       z     vdW  Elec       q    Type
REMARK                         _______ _______ _______ _____ _____    ______ ____
ROOT
ATOM      1  C6  UNL     1      -1.006  -9.914   2.305  0.00  0.00    +0.027 A 
ATOM      2  C7  UNL     1      -1.225 -10.500   3.562  0.00  0.00    +0.025 A 
ATOM      3  C8  UNL     1      -0.774  -9.872   4.726  0.00  0.00    +0.030 A 
ATOM      4  C9  UNL     1      -0.092  -8.652   4.650  0.00  0.00    +0.109 A 
ATOM      5  C10 UNL     1       0.127  -8.058   3.401  0.00  0.00    +0.030 A 
ATOM      6  C11 UNL     1      -0.324  -8.685   2.235  0.00  0.00    +0.025 A 
ENDROOT
BRANCH   4   7
ATOM      7  S1  UNL     1       0.484  -7.875   6.121  0.00  0.00    +0.073 S 
ATOM      8  O2  UNL     1       1.857  -8.395   6.444  0.00  0.00    -0.150 OA
ATOM      9  O3  UNL     1      -0.437  -8.171   7.271  0.00  0.00    -0.150 OA
BRANCH   7  10
ATOM     10  N3  UNL     1       0.559  -6.159   5.888  0.00  0.00    -0.199 N 
ATOM     11  H8  UNL     1      -0.337  -5.620   5.899  0.00  0.00    +0.175 HD
BRANCH  10  12
ATOM     12  C12 UNL     1       1.803  -5.472   5.710  0.00  0.00    +0.138 A 
ATOM     13  C13 UNL     1       2.186  -5.029   4.437  0.00  0.00    +0.045 A 
ATOM     14  C14 UNL     1       3.400  -4.354   4.283  0.00  0.00    +0.005 A 
ATOM     15  C15 UNL     1       4.216  -4.127   5.392  0.00  0.00    +0.020 A 
ATOM     16  C16 UNL     1       3.804  -4.583   6.646  0.00  0.00    +0.113 A 
ATOM     17  N4  UNL     1       2.620  -5.239   6.777  0.00  0.00    -0.239 NA
ENDBRANCH  10  12
ENDBRANCH   7  10
ENDBRANCH   4   7
BRANCH   1  18
ATOM     18  N2  UNL     1      -1.485 -10.585   1.124  0.00  0.00    -0.340 N 
ATOM     19  H3  UNL     1      -2.377 -11.126   1.194  0.00  0.00    +0.146 HD
BRANCH  18  20
ATOM     20  C5  UNL     1      -0.801 -10.517  -0.170  0.00  0.00    +0.143 C 
BRANCH  20  26
ATOM     21  O1  UNL     1      -3.464  -8.909  -0.075  0.00  0.00    -0.268 OA
ATOM     22  C1  UNL     1      -2.986  -9.373  -1.142  0.00  0.00    +0.266 C 
ATOM     23  N1  UNL     1      -3.583  -9.196  -2.423  0.00  0.00    -0.176 NA
ATOM     24  C2  UNL     1      -2.766  -9.813  -3.218  0.00  0.00    +0.066 A 
ATOM     25  C3  UNL     1      -1.675 -10.386  -2.568  0.00  0.00    +0.024 A 
ATOM     26  C4  UNL     1      -1.763 -10.152  -1.262  0.00  0.00    +0.043 C 
ATOM     27  C17 UNL     1      -0.710 -11.060  -3.318  0.00  0.00    +0.048 A 
ATOM     28  S2  UNL     1       0.706 -11.837  -2.855  0.00  0.00    -0.075 S 
ATOM     29  C18 UNL     1       1.088 -12.275  -4.444  0.00  0.00    +0.157 A 
ATOM     30  N5  UNL     1       0.155 -11.839  -5.326  0.00  0.00    -0.247 NA
ATOM     31  C19 UNL     1      -0.843 -11.164  -4.700  0.00  0.00    +0.079 A 
ATOM     32  C20 UNL     1      -1.945 -10.595  -5.361  0.00  0.00    +0.031 A 
ATOM     33  C21 UNL     1      -2.922  -9.907  -4.611  0.00  0.00    +0.028 A 
ENDBRANCH  20  26
ENDBRANCH  18  20
ENDBRANCH   1  18
TORSDOF 6
ENDMDL
MODEL 5
REMARK minimizedAffinity -6.66660309
REMARK minimizedRMSD -1
REMARK  Name = /home/tchapet/Post-Doc/ARTICLES-DOSSIERS-DES-ARTICLES-EN-REDACTION/NOUVELS-AXES-DE-RECHERCHE-A-REGARDER-URGEMMENT/ARTICLES-EN-REDACTIONS/ARTICLE_MVOTO/Paper2_Sensors_ActuatorsB/docking_rerun/ligands/1712.pdb
REMARK  6 active torsions:
REMARK  status: ('A' for Active; 'I' for Inactive)
REMARK    1  A    between atoms: C4_6  and  C5_7
REMARK    2  A    between atoms: C5_7  and  N2_8
REMARK    3  A    between atoms: N2_8  and  C6_9
REMARK    4  A    between atoms: C9_12  and  S1_15
REMARK    5  A    between atoms: S1_15  and  N3_18
REMARK    6  A    between atoms: N3_18  and  C12_19
REMARK                            x       y       z     vdW  Elec       q    Type
REMARK                         _______ _______ _______ _____ _____    ______ ____
ROOT
ATOM      1  C6  UNL     1     -18.498 -31.909   7.464  0.00  0.00    +0.027 A 
ATOM      2  C7  UNL     1     -19.240 -30.786   7.865  0.00  0.00    +0.025 A 
ATOM      3  C8  UNL     1     -19.663 -30.651   9.190  0.00  0.00    +0.030 A 
ATOM      4  C9  UNL     1     -19.357 -31.640  10.132  0.00  0.00    +0.109 A 
ATOM      5  C10 UNL     1     -18.615 -32.761   9.742  0.00  0.00    +0.030 A 
ATOM      6  C11 UNL     1     -18.190 -32.898   8.417  0.00  0.00    +0.025 A 
ENDROOT
BRANCH   4   7
ATOM      7  S1  UNL     1     -19.907 -31.467  11.796  0.00  0.00    +0.073 S 
ATOM      8  O2  UNL     1     -19.431 -32.648  12.594  0.00  0.00    -0.150 OA
ATOM      9  O3  UNL     1     -21.407 -31.407  11.853  0.00  0.00    -0.150 OA
BRANCH   7  10
ATOM     10  N3  UNL     1     -19.259 -30.012  12.480  0.00  0.00    -0.199 N 
ATOM     11  H8  UNL     1     -19.761 -29.114  12.296  0.00  0.00    +0.175 HD
BRANCH  10  12
ATOM     12  C12 UNL     1     -18.085 -30.018  13.300  0.00  0.00    +0.138 A 
ATOM     13  C13 UNL     1     -16.815 -29.955  12.711  0.00  0.00    +0.045 A 
ATOM     14  C14 UNL     1     -15.680 -29.954  13.526  0.00  0.00    +0.005 A 
ATOM     15  C15 UNL     1     -15.820 -30.014  14.913  0.00  0.00    +0.020 A 
ATOM     16  C16 UNL     1     -17.100 -30.076  15.467  0.00  0.00    +0.113 A 
ATOM     17  N4  UNL     1     -18.193 -30.078  14.658  0.00  0.00    -0.239 NA
ENDBRANCH  10  12
ENDBRANCH   7  10
ENDBRANCH   4   7
BRANCH   1  18
ATOM     18  N2  UNL     1     -18.075 -32.018   6.092  0.00  0.00    -0.340 N 
ATOM     19  H3  UNL     1     -17.048 -32.073   5.897  0.00  0.00    +0.146 HD
BRANCH  18  20
ATOM     20  C5  UNL     1     -19.010 -32.087   4.967  0.00  0.00    +0.143 C 
BRANCH  20  26
ATOM     21  O1  UNL     1     -16.953 -30.730   3.065  0.00  0.00    -0.268 OA
ATOM     22  C1  UNL     1     -18.065 -30.214   3.345  0.00  0.00    +0.266 C 
ATOM     23  N1  UNL     1     -18.525 -28.977   2.810  0.00  0.00    -0.176 NA
ATOM     24  C2  UNL     1     -19.697 -28.840   3.344  0.00  0.00    +0.066 A 
ATOM     25  C3  UNL     1     -20.054 -29.887   4.191  0.00  0.00    +0.024 A 
ATOM     26  C4  UNL     1     -19.067 -30.775   4.241  0.00  0.00    +0.043 C 
ATOM     27  C17 UNL     1     -21.305 -29.868   4.811  0.00  0.00    +0.048 A 
ATOM     28  S2  UNL     1     -22.036 -30.959   5.860  0.00  0.00    -0.075 S 
ATOM     29  C18 UNL     1     -23.443 -30.028   5.986  0.00  0.00    +0.157 A 
ATOM     30  N5  UNL     1     -23.369 -28.897   5.242  0.00  0.00    -0.247 NA
ATOM     31  C19 UNL     1     -22.181 -28.809   4.589  0.00  0.00    +0.079 A 
ATOM     32  C20 UNL     1     -21.825 -27.746   3.741  0.00  0.00    +0.031 A 
ATOM     33  C21 UNL     1     -20.565 -27.761   3.107  0.00  0.00    +0.028 A 
ENDBRANCH  20  26
ENDBRANCH  18  20
ENDBRANCH   1  18
TORSDOF 6
ENDMDL
MODEL 6
REMARK minimizedAffinity -6.48921919
REMARK minimizedRMSD -1
REMARK  Name = /home/tchapet/Post-Doc/ARTICLES-DOSSIERS-DES-ARTICLES-EN-REDACTION/NOUVELS-AXES-DE-RECHERCHE-A-REGARDER-URGEMMENT/ARTICLES-EN-REDACTIONS/ARTICLE_MVOTO/Paper2_Sensors_ActuatorsB/docking_rerun/ligands/1712.pdb
REMARK  6 active torsions:
REMARK  status: ('A' for Active; 'I' for Inactive)
REMARK    1  A    between atoms: C4_6  and  C5_7
REMARK    2  A    between atoms: C5_7  and  N2_8
REMARK    3  A    between atoms: N2_8  and  C6_9
REMARK    4  A    between atoms: C9_12  and  S1_15
REMARK    5  A    between atoms: S1_15  and  N3_18
REMARK    6  A    between atoms: N3_18  and  C12_19
REMARK                            x       y       z     vdW  Elec       q    Type
REMARK                         _______ _______ _______ _____ _____    ______ ____
ROOT
ATOM      1  C6  UNL     1     -20.822 -30.475   8.517  0.00  0.00    +0.027 A 
ATOM      2  C7  UNL     1     -21.356 -30.224   9.792  0.00  0.00    +0.025 A 
ATOM      3  C8  UNL     1     -20.561 -30.358  10.934  0.00  0.00    +0.030 A 
ATOM      4  C9  UNL     1     -19.223 -30.752  10.819  0.00  0.00    +0.109 A 
ATOM      5  C10 UNL     1     -18.682 -31.001   9.553  0.00  0.00    +0.030 A 
ATOM      6  C11 UNL     1     -19.474 -30.867   8.409  0.00  0.00    +0.025 A 
ENDROOT
BRANCH   4   7
ATOM      7  S1  UNL     1     -18.235 -30.932  12.265  0.00  0.00    +0.073 S 
ATOM      8  O2  UNL     1     -19.030 -30.488  13.461  0.00  0.00    -0.150 OA
ATOM      9  O3  UNL     1     -16.991 -30.095  12.162  0.00  0.00    -0.150 OA
BRANCH   7  10
ATOM     10  N3  UNL     1     -17.779 -32.593  12.461  0.00  0.00    -0.199 N 
ATOM     11  H8  UNL     1     -18.461 -33.241  12.917  0.00  0.00    +0.175 HD
BRANCH  10  12
ATOM     12  C12 UNL     1     -16.519 -33.092  11.997  0.00  0.00    +0.138 A 
ATOM     13  C13 UNL     1     -15.425 -33.160  12.869  0.00  0.00    +0.045 A 
ATOM     14  C14 UNL     1     -14.206 -33.657  12.402  0.00  0.00    +0.005 A 
ATOM     15  C15 UNL     1     -14.089 -34.081  11.078  0.00  0.00    +0.020 A 
ATOM     16  C16 UNL     1     -15.200 -33.999  10.236  0.00  0.00    +0.113 A 
ATOM     17  N4  UNL     1     -16.378 -33.512  10.707  0.00  0.00    -0.239 NA
ENDBRANCH  10  12
ENDBRANCH   7  10
ENDBRANCH   4   7
BRANCH   1  18
ATOM     18  N2  UNL     1     -21.665 -30.326   7.360  0.00  0.00    -0.340 N 
ATOM     19  H3  UNL     1     -22.529 -29.743   7.453  0.00  0.00    +0.146 HD
BRANCH  18  20
ATOM     20  C5  UNL     1     -21.354 -30.923   6.059  0.00  0.00    +0.143 C 
BRANCH  20  26
ATOM     21  O1  UNL     1     -23.256 -28.518   5.517  0.00  0.00    -0.268 OA
ATOM     22  C1  UNL     1     -22.244 -28.760   4.809  0.00  0.00    +0.266 C 
ATOM     23  N1  UNL     1     -21.835 -27.957   3.707  0.00  0.00    -0.176 NA
ATOM     24  C2  UNL     1     -20.763 -28.552   3.288  0.00  0.00    +0.066 A 
ATOM     25  C3  UNL     1     -20.427 -29.686   4.024  0.00  0.00    +0.024 A 
ATOM     26  C4  UNL     1     -21.324 -29.874   4.986  0.00  0.00    +0.043 C 
ATOM     27  C17 UNL     1     -19.277 -30.403   3.685  0.00  0.00    +0.048 A 
ATOM     28  S2  UNL     1     -18.595 -31.782   4.363  0.00  0.00    -0.075 S 
ATOM     29  C18 UNL     1     -17.311 -31.794   3.261  0.00  0.00    +0.157 A 
ATOM     30  N5  UNL     1     -17.390 -30.764   2.382  0.00  0.00    -0.247 NA
ATOM     31  C19 UNL     1     -18.483 -29.993   2.619  0.00  0.00    +0.079 A 
ATOM     32  C20 UNL     1     -18.820 -28.853   1.868  0.00  0.00    +0.031 A 
ATOM     33  C21 UNL     1     -19.976 -28.119   2.207  0.00  0.00    +0.028 A 
ENDBRANCH  20  26
ENDBRANCH  18  20
ENDBRANCH   1  18
TORSDOF 6
ENDMDL
MODEL 7
REMARK minimizedAffinity -6.48269081
REMARK minimizedRMSD -1
REMARK  Name = /home/tchapet/Post-Doc/ARTICLES-DOSSIERS-DES-ARTICLES-EN-REDACTION/NOUVELS-AXES-DE-RECHERCHE-A-REGARDER-URGEMMENT/ARTICLES-EN-REDACTIONS/ARTICLE_MVOTO/Paper2_Sensors_ActuatorsB/docking_rerun/ligands/1712.pdb
REMARK  6 active torsions:
REMARK  status: ('A' for Active; 'I' for Inactive)
REMARK    1  A    between atoms: C4_6  and  C5_7
REMARK    2  A    between atoms: C5_7  and  N2_8
REMARK    3  A    between atoms: N2_8  and  C6_9
REMARK    4  A    between atoms: C9_12  and  S1_15
REMARK    5  A    between atoms: S1_15  and  N3_18
REMARK    6  A    between atoms: N3_18  and  C12_19
REMARK                            x       y       z     vdW  Elec       q    Type
REMARK                         _______ _______ _______ _____ _____    ______ ____
ROOT
ATOM      1  C6  UNL     1      16.154   6.230  13.249  0.00  0.00    +0.027 A 
ATOM      2  C7  UNL     1      15.226   7.063  13.895  0.00  0.00    +0.025 A 
ATOM      3  C8  UNL     1      15.618   7.864  14.971  0.00  0.00    +0.030 A 
ATOM      4  C9  UNL     1      16.943   7.840  15.421  0.00  0.00    +0.109 A 
ATOM      5  C10 UNL     1      17.876   7.015  14.781  0.00  0.00    +0.030 A 
ATOM      6  C11 UNL     1      17.486   6.213  13.704  0.00  0.00    +0.025 A 
ENDROOT
BRANCH   4   7
ATOM      7  S1  UNL     1      17.425   8.842  16.786  0.00  0.00    +0.073 S 
ATOM      8  O2  UNL     1      16.428   8.668  17.897  0.00  0.00    -0.150 OA
ATOM      9  O3  UNL     1      17.470  10.290  16.388  0.00  0.00    -0.150 OA
BRANCH   7  10
ATOM     10  N3  UNL     1      18.996   8.362  17.340  0.00  0.00    -0.199 N 
ATOM     11  H8  UNL     1      19.826   8.889  16.987  0.00  0.00    +0.175 HD
BRANCH  10  12
ATOM     12  C12 UNL     1      19.174   7.294  18.278  0.00  0.00    +0.138 A 
ATOM     13  C13 UNL     1      18.875   7.489  19.633  0.00  0.00    +0.045 A 
ATOM     14  C14 UNL     1      19.047   6.433  20.532  0.00  0.00    +0.005 A 
ATOM     15  C15 UNL     1      19.512   5.200  20.075  0.00  0.00    +0.020 A 
ATOM     16  C16 UNL     1      19.801   5.040  18.718  0.00  0.00    +0.113 A 
ATOM     17  N4  UNL     1      19.628   6.078  17.858  0.00  0.00    -0.239 NA
ENDBRANCH  10  12
ENDBRANCH   7  10
ENDBRANCH   4   7
BRANCH   1  18
ATOM     18  N2  UNL     1      15.719   5.418  12.142  0.00  0.00    -0.340 N 
ATOM     19  H3  UNL     1      14.983   4.696  12.321  0.00  0.00    +0.146 HD
BRANCH  18  20
ATOM     20  C5  UNL     1      16.233   5.579  10.780  0.00  0.00    +0.143 C 
BRANCH  20  26
ATOM     21  O1  UNL     1      15.273   2.623  10.967  0.00  0.00    -0.268 OA
ATOM     22  C1  UNL     1      15.015   3.362   9.981  0.00  0.00    +0.266 C 
ATOM     23  N1  UNL     1      14.239   2.952   8.861  0.00  0.00    -0.176 NA
ATOM     24  C2  UNL     1      14.217   4.009   8.112  0.00  0.00    +0.066 A 
ATOM     25  C3  UNL     1      14.916   5.089   8.645  0.00  0.00    +0.024 A 
ATOM     26  C4  UNL     1      15.448   4.742   9.813  0.00  0.00    +0.043 C 
ATOM     27  C17 UNL     1      14.947   6.296   7.943  0.00  0.00    +0.048 A 
ATOM     28  S2  UNL     1      15.675   7.767   8.305  0.00  0.00    -0.075 S 
ATOM     29  C18 UNL     1      15.122   8.490   6.879  0.00  0.00    +0.157 A 
ATOM     30  N5  UNL     1      14.389   7.631   6.128  0.00  0.00    -0.247 NA
ATOM     31  C19 UNL     1      14.293   6.412   6.720  0.00  0.00    +0.079 A 
ATOM     32  C20 UNL     1      13.591   5.324   6.173  0.00  0.00    +0.031 A 
ATOM     33  C21 UNL     1      13.550   4.103   6.878  0.00  0.00    +0.028 A 
ENDBRANCH  20  26
ENDBRANCH  18  20
ENDBRANCH   1  18
TORSDOF 6
ENDMDL
MODEL 8
REMARK minimizedAffinity -6.4339571
REMARK minimizedRMSD -1
REMARK  Name = /home/tchapet/Post-Doc/ARTICLES-DOSSIERS-DES-ARTICLES-EN-REDACTION/NOUVELS-AXES-DE-RECHERCHE-A-REGARDER-URGEMMENT/ARTICLES-EN-REDACTIONS/ARTICLE_MVOTO/Paper2_Sensors_ActuatorsB/docking_rerun/ligands/1712.pdb
REMARK  6 active torsions:
REMARK  status: ('A' for Active; 'I' for Inactive)
REMARK    1  A    between atoms: C4_6  and  C5_7
REMARK    2  A    between atoms: C5_7  and  N2_8
REMARK    3  A    between atoms: N2_8  and  C6_9
REMARK    4  A    between atoms: C9_12  and  S1_15
REMARK    5  A    between atoms: S1_15  and  N3_18
REMARK    6  A    between atoms: N3_18  and  C12_19
REMARK                            x       y       z     vdW  Elec       q    Type
REMARK                         _______ _______ _______ _____ _____    ______ ____
ROOT
ATOM      1  C6  UNL     1      -0.644  -9.188   3.613  0.00  0.00    +0.027 A 
ATOM      2  C7  UNL     1      -0.249  -8.699   2.357  0.00  0.00    +0.025 A 
ATOM      3  C8  UNL     1      -0.094  -9.567   1.273  0.00  0.00    +0.030 A 
ATOM      4  C9  UNL     1      -0.325 -10.938   1.430  0.00  0.00    +0.109 A 
ATOM      5  C10 UNL     1      -0.723 -11.435   2.676  0.00  0.00    +0.030 A 
ATOM      6  C11 UNL     1      -0.880 -10.568   3.763  0.00  0.00    +0.025 A 
ENDROOT
BRANCH   4   7
ATOM      7  S1  UNL     1      -0.114 -12.026   0.061  0.00  0.00    +0.073 S 
ATOM      8  O2  UNL     1       0.363 -13.359   0.564  0.00  0.00    -0.150 OA
ATOM      9  O3  UNL     1       0.899 -11.473  -0.902  0.00  0.00    -0.150 OA
BRANCH   7  10
ATOM     10  N3  UNL     1      -1.623 -12.229  -0.766  0.00  0.00    -0.199 N 
ATOM     11  H8  UNL     1      -2.044 -13.185  -0.798  0.00  0.00    +0.175 HD
BRANCH  10  12
ATOM     12  C12 UNL     1      -2.307 -11.127  -1.375  0.00  0.00    +0.138 A 
ATOM     13  C13 UNL     1      -3.066 -10.249  -0.589  0.00  0.00    +0.045 A 
ATOM     14  C14 UNL     1      -3.719  -9.175  -1.198  0.00  0.00    +0.005 A 
ATOM     15  C15 UNL     1      -3.612  -8.986  -2.576  0.00  0.00    +0.020 A 
ATOM     16  C16 UNL     1      -2.848  -9.880  -3.329  0.00  0.00    +0.113 A 
ATOM     17  N4  UNL     1      -2.220 -10.920  -2.720  0.00  0.00    -0.239 NA
ENDBRANCH  10  12
ENDBRANCH   7  10
ENDBRANCH   4   7
BRANCH   1  18
ATOM     18  N2  UNL     1      -0.798  -8.268   4.709  0.00  0.00    -0.340 N 
ATOM     19  H3  UNL     1      -0.899  -7.251   4.487  0.00  0.00    +0.146 HD
BRANCH  18  20
ATOM     20  C5  UNL     1      -0.850  -8.692   6.111  0.00  0.00    +0.143 C 
BRANCH  20  26
ATOM     21  O1  UNL     1       1.427  -6.575   6.266  0.00  0.00    -0.268 OA
ATOM     22  C1  UNL     1       1.539  -7.733   6.745  0.00  0.00    +0.266 C 
ATOM     23  N1  UNL     1       2.695  -8.200   7.434  0.00  0.00    -0.176 NA
ATOM     24  C2  UNL     1       2.376  -9.413   7.760  0.00  0.00    +0.066 A 
ATOM     25  C3  UNL     1       1.102  -9.790   7.343  0.00  0.00    +0.024 A 
ATOM     26  C4  UNL     1       0.531  -8.782   6.692  0.00  0.00    +0.043 C 
ATOM     27  C17 UNL     1       0.632 -11.067   7.653  0.00  0.00    +0.048 A 
ATOM     28  S2  UNL     1      -0.834 -11.818   7.316  0.00  0.00    -0.075 S 
ATOM     29  C18 UNL     1      -0.379 -13.249   8.095  0.00  0.00    +0.157 A 
ATOM     30  N5  UNL     1       0.873 -13.168   8.610  0.00  0.00    -0.247 NA
ATOM     31  C19 UNL     1       1.433 -11.956   8.364  0.00  0.00    +0.079 A 
ATOM     32  C20 UNL     1       2.723 -11.584   8.782  0.00  0.00    +0.031 A 
ATOM     33  C21 UNL     1       3.203 -10.294   8.478  0.00  0.00    +0.028 A 
ENDBRANCH  20  26
ENDBRANCH  18  20
ENDBRANCH   1  18
TORSDOF 6
ENDMDL
MODEL 9
REMARK minimizedAffinity -6.40165901
REMARK minimizedRMSD -1
REMARK  Name = /home/tchapet/Post-Doc/ARTICLES-DOSSIERS-DES-ARTICLES-EN-REDACTION/NOUVELS-AXES-DE-RECHERCHE-A-REGARDER-URGEMMENT/ARTICLES-EN-REDACTIONS/ARTICLE_MVOTO/Paper2_Sensors_ActuatorsB/docking_rerun/ligands/1712.pdb
REMARK  6 active torsions:
REMARK  status: ('A' for Active; 'I' for Inactive)
REMARK    1  A    between atoms: C4_6  and  C5_7
REMARK    2  A    between atoms: C5_7  and  N2_8
REMARK    3  A    between atoms: N2_8  and  C6_9
REMARK    4  A    between atoms: C9_12  and  S1_15
REMARK    5  A    between atoms: S1_15  and  N3_18
REMARK    6  A    between atoms: N3_18  and  C12_19
REMARK                            x       y       z     vdW  Elec       q    Type
REMARK                         _______ _______ _______ _____ _____    ______ ____
ROOT
ATOM      1  C6  UNL     1       0.432  -9.891   2.757  0.00  0.00    +0.027 A 
ATOM      2  C7  UNL     1      -0.437  -8.864   3.158  0.00  0.00    +0.025 A 
ATOM      3  C8  UNL     1      -0.343  -8.313   4.439  0.00  0.00    +0.030 A 
ATOM      4  C9  UNL     1       0.619  -8.785   5.340  0.00  0.00    +0.109 A 
ATOM      5  C10 UNL     1       1.492  -9.806   4.948  0.00  0.00    +0.030 A 
ATOM      6  C11 UNL     1       1.400 -10.358   3.666  0.00  0.00    +0.025 A 
ENDROOT
BRANCH   4   7
ATOM      7  S1  UNL     1       0.720  -8.094   6.957  0.00  0.00    +0.073 S 
ATOM      8  O2  UNL     1       1.992  -8.559   7.609  0.00  0.00    -0.150 OA
ATOM      9  O3  UNL     1      -0.449  -8.532   7.793  0.00  0.00    -0.150 OA
BRANCH   7  10
ATOM     10  N3  UNL     1       0.724  -6.364   6.856  0.00  0.00    -0.199 N 
ATOM     11  H8  UNL     1      -0.101  -5.846   7.236  0.00  0.00    +0.175 HD
BRANCH  10  12
ATOM     12  C12 UNL     1       1.826  -5.640   6.296  0.00  0.00    +0.138 A 
ATOM     13  C13 UNL     1       1.813  -5.276   4.943  0.00  0.00    +0.045 A 
ATOM     14  C14 UNL     1       2.893  -4.563   4.415  0.00  0.00    +0.005 A 
ATOM     15  C15 UNL     1       3.968  -4.221   5.235  0.00  0.00    +0.020 A 
ATOM     16  C16 UNL     1       3.949  -4.600   6.579  0.00  0.00    +0.113 A 
ATOM     17  N4  UNL     1       2.890  -5.294   7.075  0.00  0.00    -0.239 NA
ENDBRANCH  10  12
ENDBRANCH   7  10
ENDBRANCH   4   7
BRANCH   1  18
ATOM     18  N2  UNL     1       0.312 -10.436   1.430  0.00  0.00    -0.340 N 
ATOM     19  H3  UNL     1       1.019 -10.150   0.714  0.00  0.00    +0.146 HD
BRANCH  18  20
ATOM     20  C5  UNL     1      -0.731 -11.391   1.047  0.00  0.00    +0.143 C 
BRANCH  20  26
ATOM     21  O1  UNL     1       1.103 -13.639  -0.082  0.00  0.00    -0.268 OA
ATOM     22  C1  UNL     1       0.342 -12.950  -0.810  0.00  0.00    +0.266 C 
ATOM     23  N1  UNL     1       0.208 -13.131  -2.216  0.00  0.00    -0.176 NA
ATOM     24  C2  UNL     1      -0.669 -12.238  -2.548  0.00  0.00    +0.066 A 
ATOM     25  C3  UNL     1      -1.129 -11.477  -1.476  0.00  0.00    +0.024 A 
ATOM     26  C4  UNL     1      -0.524 -11.870  -0.360  0.00  0.00    +0.043 C 
ATOM     27  C17 UNL     1      -2.096 -10.495  -1.701  0.00  0.00    +0.048 A 
ATOM     28  S2  UNL     1      -2.858  -9.432  -0.645  0.00  0.00    -0.075 S 
ATOM     29  C18 UNL     1      -3.783  -8.734  -1.878  0.00  0.00    +0.157 A 
ATOM     30  N5  UNL     1      -3.524  -9.297  -3.084  0.00  0.00    -0.247 NA
ATOM     31  C19 UNL     1      -2.586 -10.275  -2.984  0.00  0.00    +0.079 A 
ATOM     32  C20 UNL     1      -2.122 -11.035  -4.072  0.00  0.00    +0.031 A 
ATOM     33  C21 UNL     1      -1.149 -12.033  -3.853  0.00  0.00    +0.028 A 
ENDBRANCH  20  26
ENDBRANCH  18  20
ENDBRANCH   1  18
TORSDOF 6
ENDMDL
