MODEL 1
REMARK minimizedAffinity -6.93769503
REMARK minimizedRMSD -1
REMARK  Name = /home/tchapet/Post-Doc/ARTICLES-DOSSIERS-DES-ARTICLES-EN-REDACTION/NOUVELS-AXES-DE-RECHERCHE-A-REGARDER-URGEMMENT/ARTICLES-EN-REDACTIONS/ARTICLE_MVOTO/Paper2_Sensors_ActuatorsB/docking_rerun/ligands/1712.pdb
REMARK  6 active torsions:
REMARK  status: ('A' for Active; 'I' for Inactive)
REMARK    1  A    between atoms: C4_6  and  C5_7
REMARK    2  A    between atoms: C5_7  and  N2_8
REMARK    3  A    between atoms: N2_8  and  C6_9
REMARK    4  A    between atoms: C9_12  and  S1_15
REMARK    5  A    between atoms: S1_15  and  N3_18
REMARK    6  A    between atoms: N3_18  and  C12_19
REMARK                            x       y       z     vdW  Elec       q    Type
REMARK                         _______ _______ _______ _____ _____    ______ ____
ROOT
ATOM      1  C6  UNL     1      15.731   4.617  11.203  0.00  0.00    +0.027 A 
ATOM      2  C7  UNL     1      15.262   3.373  10.752  0.00  0.00    +0.025 A 
ATOM      3  C8  UNL     1      14.872   3.201   9.420  0.00  0.00    +0.030 A 
ATOM      4  C9  UNL     1      14.941   4.271   8.522  0.00  0.00    +0.109 A 
ATOM      5  C10 UNL     1      15.412   5.514   8.962  0.00  0.00    +0.030 A 
ATOM      6  C11 UNL     1      15.803   5.689  10.293  0.00  0.00    +0.025 A 
ENDROOT
BRANCH   4   7
ATOM      7  S1  UNL     1      14.435   4.048   6.850  0.00  0.00    +0.073 S 
ATOM      8  O2  UNL     1      12.959   3.769   6.818  0.00  0.00    -0.150 OA
ATOM      9  O3  UNL     1      15.168   2.895   6.226  0.00  0.00    -0.150 OA
BRANCH   7  10
ATOM     10  N3  UNL     1      14.769   5.485   5.940  0.00  0.00    -0.199 N 
ATOM     11  H8  UNL     1      15.729   5.608   5.546  0.00  0.00    +0.175 HD
BRANCH  10  12
ATOM     12  C12 UNL     1      13.765   6.478   5.697  0.00  0.00    +0.138 A 
ATOM     13  C13 UNL     1      13.317   7.295   6.744  0.00  0.00    +0.045 A 
ATOM     14  C14 UNL     1      12.343   8.264   6.488  0.00  0.00    +0.005 A 
ATOM     15  C15 UNL     1      11.828   8.409   5.199  0.00  0.00    +0.020 A 
ATOM     16  C16 UNL     1      12.297   7.578   4.180  0.00  0.00    +0.113 A 
ATOM     17  N4  UNL     1      13.244   6.640   4.448  0.00  0.00    -0.239 NA
ENDBRANCH  10  12
ENDBRANCH   7  10
ENDBRANCH   4   7
BRANCH   1  18
ATOM     18  N2  UNL     1      16.127   4.762  12.579  0.00  0.00    -0.340 N 
ATOM     19  H3  UNL     1      15.668   4.147  13.291  0.00  0.00    +0.146 HD
BRANCH  18  20
ATOM     20  C5  UNL     1      17.160   5.702  13.022  0.00  0.00    +0.143 C 
BRANCH  20  26
ATOM     21  O1  UNL     1      14.375   7.089  13.139  0.00  0.00    -0.268 OA
ATOM     22  C1  UNL     1      15.268   7.279  14.005  0.00  0.00    +0.266 C 
ATOM     23  N1  UNL     1      15.104   8.116  15.145  0.00  0.00    -0.176 NA
ATOM     24  C2  UNL     1      16.241   8.009  15.758  0.00  0.00    +0.066 A 
ATOM     25  C3  UNL     1      17.146   7.166  15.117  0.00  0.00    +0.024 A 
ATOM     26  C4  UNL     1      16.597   6.686  14.006  0.00  0.00    +0.043 C 
ATOM     27  C17 UNL     1      18.401   6.949  15.691  0.00  0.00    +0.048 A 
ATOM     28  S2  UNL     1      19.696   6.001  15.191  0.00  0.00    -0.075 S 
ATOM     29  C18 UNL     1      20.639   6.433  16.527  0.00  0.00    +0.157 A 
ATOM     30  N5  UNL     1      19.986   7.289  17.352  0.00  0.00    -0.247 NA
ATOM     31  C19 UNL     1      18.743   7.575  16.886  0.00  0.00    +0.079 A 
ATOM     32  C20 UNL     1      17.836   8.431  17.535  0.00  0.00    +0.031 A 
ATOM     33  C21 UNL     1      16.565   8.652  16.964  0.00  0.00    +0.028 A 
ENDBRANCH  20  26
ENDBRANCH  18  20
ENDBRANCH   1  18
TORSDOF 6
ENDMDL
MODEL 2
REMARK minimizedAffinity -6.83097744
REMARK minimizedRMSD -1
REMARK  Name = /home/tchapet/Post-Doc/ARTICLES-DOSSIERS-DES-ARTICLES-EN-REDACTION/NOUVELS-AXES-DE-RECHERCHE-A-REGARDER-URGEMMENT/ARTICLES-EN-REDACTIONS/ARTICLE_MVOTO/Paper2_Sensors_ActuatorsB/docking_rerun/ligands/1712.pdb
REMARK  6 active torsions:
REMARK  status: ('A' for Active; 'I' for Inactive)
REMARK    1  A    between atoms: C4_6  and  C5_7
REMARK    2  A    between atoms: C5_7  and  N2_8
REMARK    3  A    between atoms: N2_8  and  C6_9
REMARK    4  A    between atoms: C9_12  and  S1_15
REMARK    5  A    between atoms: S1_15  and  N3_18
REMARK    6  A    between atoms: N3_18  and  C12_19
REMARK                            x       y       z     vdW  Elec       q    Type
REMARK                         _______ _______ _______ _____ _____    ______ ____
ROOT
ATOM      1  C6  UNL     1     -20.859 -30.426   8.539  0.00  0.00    +0.027 A 
ATOM      2  C7  UNL     1     -19.550 -30.926   8.449  0.00  0.00    +0.025 A 
ATOM      3  C8  UNL     1     -18.762 -31.066   9.595  0.00  0.00    +0.030 A 
ATOM      4  C9  UNL     1     -19.270 -30.701  10.848  0.00  0.00    +0.109 A 
ATOM      5  C10 UNL     1     -20.575 -30.205  10.947  0.00  0.00    +0.030 A 
ATOM      6  C11 UNL     1     -21.365 -30.066   9.802  0.00  0.00    +0.025 A 
ENDROOT
BRANCH   4   7
ATOM      7  S1  UNL     1     -18.265 -30.867  12.284  0.00  0.00    +0.073 S 
ATOM      8  O2  UNL     1     -18.236 -29.554  13.016  0.00  0.00    -0.150 OA
ATOM      9  O3  UNL     1     -16.862 -31.251  11.906  0.00  0.00    -0.150 OA
BRANCH   7  10
ATOM     10  N3  UNL     1     -18.922 -32.090  13.322  0.00  0.00    -0.199 N 
ATOM     11  H8  UNL     1     -18.758 -33.090  13.071  0.00  0.00    +0.175 HD
BRANCH  10  12
ATOM     12  C12 UNL     1     -19.652 -31.762  14.510  0.00  0.00    +0.138 A 
ATOM     13  C13 UNL     1     -21.039 -31.566  14.453  0.00  0.00    +0.045 A 
ATOM     14  C14 UNL     1     -21.736 -31.255  15.623  0.00  0.00    +0.005 A 
ATOM     15  C15 UNL     1     -21.050 -31.143  16.833  0.00  0.00    +0.020 A 
ATOM     16  C16 UNL     1     -19.668 -31.344  16.854  0.00  0.00    +0.113 A 
ATOM     17  N4  UNL     1     -19.006 -31.645  15.706  0.00  0.00    -0.239 NA
ENDBRANCH  10  12
ENDBRANCH   7  10
ENDBRANCH   4   7
BRANCH   1  18
ATOM     18  N2  UNL     1     -21.646 -30.297   7.340  0.00  0.00    -0.340 N 
ATOM     19  H3  UNL     1     -22.527 -29.734   7.388  0.00  0.00    +0.146 HD
BRANCH  18  20
ATOM     20  C5  UNL     1     -21.256 -30.888   6.058  0.00  0.00    +0.143 C 
BRANCH  20  26
ATOM     21  O1  UNL     1     -23.224 -28.538   5.517  0.00  0.00    -0.268 OA
ATOM     22  C1  UNL     1     -22.220 -28.766   4.794  0.00  0.00    +0.266 C 
ATOM     23  N1  UNL     1     -21.850 -27.969   3.673  0.00  0.00    -0.176 NA
ATOM     24  C2  UNL     1     -20.772 -28.545   3.243  0.00  0.00    +0.066 A 
ATOM     25  C3  UNL     1     -20.396 -29.660   3.988  0.00  0.00    +0.024 A 
ATOM     26  C4  UNL     1     -21.271 -29.855   4.969  0.00  0.00    +0.043 C 
ATOM     27  C17 UNL     1     -19.236 -30.355   3.639  0.00  0.00    +0.048 A 
ATOM     28  S2  UNL     1     -18.509 -31.707   4.323  0.00  0.00    -0.075 S 
ATOM     29  C18 UNL     1     -17.246 -31.705   3.198  0.00  0.00    +0.157 A 
ATOM     30  N5  UNL     1     -17.365 -30.690   2.306  0.00  0.00    -0.247 NA
ATOM     31  C19 UNL     1     -18.471 -29.941   2.552  0.00  0.00    +0.079 A 
ATOM     32  C20 UNL     1     -18.849 -28.821   1.791  0.00  0.00    +0.031 A 
ATOM     33  C21 UNL     1     -20.016 -28.110   2.141  0.00  0.00    +0.028 A 
ENDBRANCH  20  26
ENDBRANCH  18  20
ENDBRANCH   1  18
TORSDOF 6
ENDMDL
MODEL 3
REMARK minimizedAffinity -6.74892807
REMARK minimizedRMSD -1
REMARK  Name = /home/tchapet/Post-Doc/ARTICLES-DOSSIERS-DES-ARTICLES-EN-REDACTION/NOUVELS-AXES-DE-RECHERCHE-A-REGARDER-URGEMMENT/ARTICLES-EN-REDACTIONS/ARTICLE_MVOTO/Paper2_Sensors_ActuatorsB/docking_rerun/ligands/1712.pdb
REMARK  6 active torsions:
REMARK  status: ('A' for Active; 'I' for Inactive)
REMARK    1  A    between atoms: C4_6  and  C5_7
REMARK    2  A    between atoms: C5_7  and  N2_8
REMARK    3  A    between atoms: N2_8  and  C6_9
REMARK    4  A    between atoms: C9_12  and  S1_15
REMARK    5  A    between atoms: S1_15  and  N3_18
REMARK    6  A    between atoms: N3_18  and  C12_19
REMARK                            x       y       z     vdW  Elec       q    Type
REMARK                         _______ _______ _______ _____ _____    ______ ____
ROOT
ATOM      1  C6  UNL     1     -20.789 -30.463   8.430  0.00  0.00    +0.027 A 
ATOM      2  C7  UNL     1     -19.459 -30.903   8.336  0.00  0.00    +0.025 A 
ATOM      3  C8  UNL     1     -18.686 -31.080   9.488  0.00  0.00    +0.030 A 
ATOM      4  C9  UNL     1     -19.231 -30.815  10.749  0.00  0.00    +0.109 A 
ATOM      5  C10 UNL     1     -20.558 -30.381  10.853  0.00  0.00    +0.030 A 
ATOM      6  C11 UNL     1     -21.332 -30.203   9.702  0.00  0.00    +0.025 A 
ENDROOT
BRANCH   4   7
ATOM      7  S1  UNL     1     -18.246 -31.029  12.193  0.00  0.00    +0.073 S 
ATOM      8  O2  UNL     1     -16.934 -30.321  12.000  0.00  0.00    -0.150 OA
ATOM      9  O3  UNL     1     -17.986 -32.487  12.445  0.00  0.00    -0.150 OA
BRANCH   7  10
ATOM     10  N3  UNL     1     -19.064 -30.359  13.566  0.00  0.00    -0.199 N 
ATOM     11  H8  UNL     1     -19.966 -29.856  13.406  0.00  0.00    +0.175 HD
BRANCH  10  12
ATOM     12  C12 UNL     1     -18.552 -30.500  14.896  0.00  0.00    +0.138 A 
ATOM     13  C13 UNL     1     -17.334 -29.904  15.248  0.00  0.00    +0.045 A 
ATOM     14  C14 UNL     1     -16.853 -30.045  16.552  0.00  0.00    +0.005 A 
ATOM     15  C15 UNL     1     -17.586 -30.774  17.489  0.00  0.00    +0.020 A 
ATOM     16  C16 UNL     1     -18.795 -31.356  17.105  0.00  0.00    +0.113 A 
ATOM     17  N4  UNL     1     -19.248 -31.209  15.831  0.00  0.00    -0.239 NA
ENDBRANCH  10  12
ENDBRANCH   7  10
ENDBRANCH   4   7
BRANCH   1  18
ATOM     18  N2  UNL     1     -21.559 -30.293   7.226  0.00  0.00    -0.340 N 
ATOM     19  H3  UNL     1     -22.422 -29.702   7.273  0.00  0.00    +0.146 HD
BRANCH  18  20
ATOM     20  C5  UNL     1     -21.176 -30.878   5.939  0.00  0.00    +0.143 C 
BRANCH  20  26
ATOM     21  O1  UNL     1     -23.136 -28.517   5.418  0.00  0.00    -0.268 OA
ATOM     22  C1  UNL     1     -22.136 -28.745   4.689  0.00  0.00    +0.266 C 
ATOM     23  N1  UNL     1     -21.767 -27.945   3.571  0.00  0.00    -0.176 NA
ATOM     24  C2  UNL     1     -20.693 -28.523   3.134  0.00  0.00    +0.066 A 
ATOM     25  C3  UNL     1     -20.318 -29.643   3.872  0.00  0.00    +0.024 A 
ATOM     26  C4  UNL     1     -21.190 -29.840   4.856  0.00  0.00    +0.043 C 
ATOM     27  C17 UNL     1     -19.163 -30.341   3.515  0.00  0.00    +0.048 A 
ATOM     28  S2  UNL     1     -18.439 -31.699   4.190  0.00  0.00    -0.075 S 
ATOM     29  C18 UNL     1     -17.179 -31.696   3.059  0.00  0.00    +0.157 A 
ATOM     30  N5  UNL     1     -17.298 -30.677   2.173  0.00  0.00    -0.247 NA
ATOM     31  C19 UNL     1     -18.400 -29.924   2.427  0.00  0.00    +0.079 A 
ATOM     32  C20 UNL     1     -18.777 -28.799   1.674  0.00  0.00    +0.031 A 
ATOM     33  C21 UNL     1     -19.939 -28.085   2.031  0.00  0.00    +0.028 A 
ENDBRANCH  20  26
ENDBRANCH  18  20
ENDBRANCH   1  18
TORSDOF 6
ENDMDL
MODEL 4
REMARK minimizedAffinity -6.61132669
REMARK minimizedRMSD -1
REMARK  Name = /home/tchapet/Post-Doc/ARTICLES-DOSSIERS-DES-ARTICLES-EN-REDACTION/NOUVELS-AXES-DE-RECHERCHE-A-REGARDER-URGEMMENT/ARTICLES-EN-REDACTIONS/ARTICLE_MVOTO/Paper2_Sensors_ActuatorsB/docking_rerun/ligands/1712.pdb
REMARK  6 active torsions:
REMARK  status: ('A' for Active; 'I' for Inactive)
REMARK    1  A    between atoms: C4_6  and  C5_7
REMARK    2  A    between atoms: C5_7  and  N2_8
REMARK    3  A    between atoms: N2_8  and  C6_9
REMARK    4  A    between atoms: C9_12  and  S1_15
REMARK    5  A    between atoms: S1_15  and  N3_18
REMARK    6  A    between atoms: N3_18  and  C12_19
REMARK                            x       y       z     vdW  Elec       q    Type
REMARK                         _______ _______ _______ _____ _____    ______ ____
ROOT
ATOM      1  C6  UNL     1      16.099   6.140  13.212  0.00  0.00    +0.027 A 
ATOM      2  C7  UNL     1      17.420   6.112  13.687  0.00  0.00    +0.025 A 
ATOM      3  C8  UNL     1      17.813   6.936  14.745  0.00  0.00    +0.030 A 
ATOM      4  C9  UNL     1      16.892   7.806  15.340  0.00  0.00    +0.109 A 
ATOM      5  C10 UNL     1      15.571   7.838  14.876  0.00  0.00    +0.030 A 
ATOM      6  C11 UNL     1      15.176   7.014  13.818  0.00  0.00    +0.025 A 
ENDROOT
BRANCH   4   7
ATOM      7  S1  UNL     1      17.400   8.851  16.663  0.00  0.00    +0.073 S 
ATOM      8  O2  UNL     1      16.404   8.742  17.783  0.00  0.00    -0.150 OA
ATOM      9  O3  UNL     1      17.475  10.281  16.208  0.00  0.00    -0.150 OA
BRANCH   7  10
ATOM     10  N3  UNL     1      18.962   8.359  17.232  0.00  0.00    -0.199 N 
ATOM     11  H8  UNL     1      19.802   8.847  16.849  0.00  0.00    +0.175 HD
BRANCH  10  12
ATOM     12  C12 UNL     1      19.120   7.333  18.219  0.00  0.00    +0.138 A 
ATOM     13  C13 UNL     1      19.648   6.086  17.860  0.00  0.00    +0.045 A 
ATOM     14  C14 UNL     1      19.803   5.100  18.837  0.00  0.00    +0.005 A 
ATOM     15  C15 UNL     1      19.432   5.363  20.156  0.00  0.00    +0.020 A 
ATOM     16  C16 UNL     1      18.908   6.616  20.480  0.00  0.00    +0.113 A 
ATOM     17  N4  UNL     1      18.764   7.563  19.515  0.00  0.00    -0.239 NA
ENDBRANCH  10  12
ENDBRANCH   7  10
ENDBRANCH   4   7
BRANCH   1  18
ATOM     18  N2  UNL     1      15.724   5.277  12.123  0.00  0.00    -0.340 N 
ATOM     19  H3  UNL     1      15.013   4.532  12.307  0.00  0.00    +0.146 HD
BRANCH  18  20
ATOM     20  C5  UNL     1      16.267   5.414  10.769  0.00  0.00    +0.143 C 
BRANCH  20  26
ATOM     21  O1  UNL     1      15.230   2.481  10.885  0.00  0.00    -0.268 OA
ATOM     22  C1  UNL     1      14.984   3.252   9.922  0.00  0.00    +0.266 C 
ATOM     23  N1  UNL     1      14.188   2.892   8.798  0.00  0.00    -0.176 NA
ATOM     24  C2  UNL     1      14.188   3.969   8.078  0.00  0.00    +0.066 A 
ATOM     25  C3  UNL     1      14.920   5.016   8.633  0.00  0.00    +0.024 A 
ATOM     26  C4  UNL     1      15.452   4.624   9.786  0.00  0.00    +0.043 C 
ATOM     27  C17 UNL     1      14.978   6.240   7.963  0.00  0.00    +0.048 A 
ATOM     28  S2  UNL     1      15.747   7.681   8.358  0.00  0.00    -0.075 S 
ATOM     29  C18 UNL     1      15.202   8.457   6.957  0.00  0.00    +0.157 A 
ATOM     30  N5  UNL     1      14.441   7.638   6.189  0.00  0.00    -0.247 NA
ATOM     31  C19 UNL     1      14.317   6.407   6.749  0.00  0.00    +0.079 A 
ATOM     32  C20 UNL     1      13.582   5.352   6.180  0.00  0.00    +0.031 A 
ATOM     33  C21 UNL     1      13.514   4.115   6.853  0.00  0.00    +0.028 A 
ENDBRANCH  20  26
ENDBRANCH  18  20
ENDBRANCH   1  18
TORSDOF 6
ENDMDL
MODEL 5
REMARK minimizedAffinity -6.56315804
REMARK minimizedRMSD -1
REMARK  Name = /home/tchapet/Post-Doc/ARTICLES-DOSSIERS-DES-ARTICLES-EN-REDACTION/NOUVELS-AXES-DE-RECHERCHE-A-REGARDER-URGEMMENT/ARTICLES-EN-REDACTIONS/ARTICLE_MVOTO/Paper2_Sensors_ActuatorsB/docking_rerun/ligands/1712.pdb
REMARK  6 active torsions:
REMARK  status: ('A' for Active; 'I' for Inactive)
REMARK    1  A    between atoms: C4_6  and  C5_7
REMARK    2  A    between atoms: C5_7  and  N2_8
REMARK    3  A    between atoms: N2_8  and  C6_9
REMARK    4  A    between atoms: C9_12  and  S1_15
REMARK    5  A    between atoms: S1_15  and  N3_18
REMARK    6  A    between atoms: N3_18  and  C12_19
REMARK                            x       y       z     vdW  Elec       q    Type
REMARK                         _______ _______ _______ _____ _____    ______ ____
ROOT
ATOM      1  C6  UNL     1      11.378  28.188  19.359  0.00  0.00    +0.027 A 
ATOM      2  C7  UNL     1      11.184  29.555  19.615  0.00  0.00    +0.025 A 
ATOM      3  C8  UNL     1      10.429  30.341  18.741  0.00  0.00    +0.030 A 
ATOM      4  C9  UNL     1       9.861  29.774  17.594  0.00  0.00    +0.109 A 
ATOM      5  C10 UNL     1      10.046  28.411  17.333  0.00  0.00    +0.030 A 
ATOM      6  C11 UNL     1      10.801  27.622  18.206  0.00  0.00    +0.025 A 
ENDROOT
BRANCH   4   7
ATOM      7  S1  UNL     1       8.923  30.776  16.492  0.00  0.00    +0.073 S 
ATOM      8  O2  UNL     1       9.710  30.984  15.228  0.00  0.00    -0.150 OA
ATOM      9  O3  UNL     1       8.629  32.113  17.113  0.00  0.00    -0.150 OA
BRANCH   7  10
ATOM     10  N3  UNL     1       7.425  29.990  16.114  0.00  0.00    -0.199 N 
ATOM     11  H8  UNL     1       6.911  29.510  16.887  0.00  0.00    +0.175 HD
BRANCH  10  12
ATOM     12  C12 UNL     1       6.874  30.006  14.792  0.00  0.00    +0.138 A 
ATOM     13  C13 UNL     1       6.849  28.834  14.025  0.00  0.00    +0.045 A 
ATOM     14  C14 UNL     1       6.300  28.866  12.741  0.00  0.00    +0.005 A 
ATOM     15  C15 UNL     1       5.783  30.059  12.235  0.00  0.00    +0.020 A 
ATOM     16  C16 UNL     1       5.824  31.209  13.026  0.00  0.00    +0.113 A 
ATOM     17  N4  UNL     1       6.362  31.159  14.273  0.00  0.00    -0.239 NA
ENDBRANCH  10  12
ENDBRANCH   7  10
ENDBRANCH   4   7
BRANCH   1  18
ATOM     18  N2  UNL     1      12.159  27.404  20.280  0.00  0.00    -0.340 N 
ATOM     19  H3  UNL     1      12.558  26.498  19.940  0.00  0.00    +0.146 HD
BRANCH  18  20
ATOM     20  C5  UNL     1      12.445  27.829  21.652  0.00  0.00    +0.143 C 
BRANCH  20  26
ATOM     21  O1  UNL     1      10.936  25.106  21.704  0.00  0.00    -0.268 OA
ATOM     22  C1  UNL     1      10.757  26.001  22.570  0.00  0.00    +0.266 C 
ATOM     23  N1  UNL     1       9.876  25.867  23.681  0.00  0.00    -0.176 NA
ATOM     24  C2  UNL     1      10.012  26.994  24.305  0.00  0.00    +0.066 A 
ATOM     25  C3  UNL     1      10.913  27.866  23.698  0.00  0.00    +0.024 A 
ATOM     26  C4  UNL     1      11.406  27.303  22.600  0.00  0.00    +0.043 C 
ATOM     27  C17 UNL     1      11.165  29.107  24.288  0.00  0.00    +0.048 A 
ATOM     28  S2  UNL     1      12.184  30.362  23.829  0.00  0.00    -0.075 S 
ATOM     29  C18 UNL     1      11.749  31.316  25.157  0.00  0.00    +0.157 A 
ATOM     30  N5  UNL     1      10.839  30.696  25.948  0.00  0.00    -0.247 NA
ATOM     31  C19 UNL     1      10.515  29.469  25.464  0.00  0.00    +0.079 A 
ATOM     32  C20 UNL     1       9.600  28.596  26.078  0.00  0.00    +0.031 A 
ATOM     33  C21 UNL     1       9.344  27.339  25.492  0.00  0.00    +0.028 A 
ENDBRANCH  20  26
ENDBRANCH  18  20
ENDBRANCH   1  18
TORSDOF 6
ENDMDL
MODEL 6
REMARK minimizedAffinity -6.49934053
REMARK minimizedRMSD -1
REMARK  Name = /home/tchapet/Post-Doc/ARTICLES-DOSSIERS-DES-ARTICLES-EN-REDACTION/NOUVELS-AXES-DE-RECHERCHE-A-REGARDER-URGEMMENT/ARTICLES-EN-REDACTIONS/ARTICLE_MVOTO/Paper2_Sensors_ActuatorsB/docking_rerun/ligands/1712.pdb
REMARK  6 active torsions:
REMARK  status: ('A' for Active; 'I' for Inactive)
REMARK    1  A    between atoms: C4_6  and  C5_7
REMARK    2  A    between atoms: C5_7  and  N2_8
REMARK    3  A    between atoms: N2_8  and  C6_9
REMARK    4  A    between atoms: C9_12  and  S1_15
REMARK    5  A    between atoms: S1_15  and  N3_18
REMARK    6  A    between atoms: N3_18  and  C12_19
REMARK                            x       y       z     vdW  Elec       q    Type
REMARK                         _______ _______ _______ _____ _____    ______ ____
ROOT
ATOM      1  C6  UNL     1     -18.744 -31.853   7.645  0.00  0.00    +0.027 A 
ATOM      2  C7  UNL     1     -19.235 -30.577   7.962  0.00  0.00    +0.025 A 
ATOM      3  C8  UNL     1     -19.797 -30.323   9.217  0.00  0.00    +0.030 A 
ATOM      4  C9  UNL     1     -19.881 -31.344  10.171  0.00  0.00    +0.109 A 
ATOM      5  C10 UNL     1     -19.391 -32.619   9.864  0.00  0.00    +0.030 A 
ATOM      6  C11 UNL     1     -18.828 -32.875   8.610  0.00  0.00    +0.025 A 
ENDROOT
BRANCH   4   7
ATOM      7  S1  UNL     1     -20.603 -31.018  11.743  0.00  0.00    +0.073 S 
ATOM      8  O2  UNL     1     -21.963 -31.655  11.799  0.00  0.00    -0.150 OA
ATOM      9  O3  UNL     1     -20.744 -29.538  11.964  0.00  0.00    -0.150 OA
BRANCH   7  10
ATOM     10  N3  UNL     1     -19.605 -31.681  12.996  0.00  0.00    -0.199 N 
ATOM     11  H8  UNL     1     -19.869 -32.608  13.398  0.00  0.00    +0.175 HD
BRANCH  10  12
ATOM     12  C12 UNL     1     -18.431 -31.007  13.464  0.00  0.00    +0.138 A 
ATOM     13  C13 UNL     1     -17.391 -30.705  12.575  0.00  0.00    +0.045 A 
ATOM     14  C14 UNL     1     -16.257 -30.040  13.048  0.00  0.00    +0.005 A 
ATOM     15  C15 UNL     1     -16.169 -29.685  14.394  0.00  0.00    +0.020 A 
ATOM     16  C16 UNL     1     -17.223 -30.002  15.253  0.00  0.00    +0.113 A 
ATOM     17  N4  UNL     1     -18.319 -30.649  14.775  0.00  0.00    -0.239 NA
ENDBRANCH  10  12
ENDBRANCH   7  10
ENDBRANCH   4   7
BRANCH   1  18
ATOM     18  N2  UNL     1     -18.169 -32.082   6.345  0.00  0.00    -0.340 N 
ATOM     19  H3  UNL     1     -17.126 -32.101   6.265  0.00  0.00    +0.146 HD
BRANCH  18  20
ATOM     20  C5  UNL     1     -18.973 -32.320   5.144  0.00  0.00    +0.143 C 
BRANCH  20  26
ATOM     21  O1  UNL     1     -16.515 -32.550   3.247  0.00  0.00    -0.268 OA
ATOM     22  C1  UNL     1     -17.362 -31.623   3.156  0.00  0.00    +0.266 C 
ATOM     23  N1  UNL     1     -17.316 -30.599   2.168  0.00  0.00    -0.176 NA
ATOM     24  C2  UNL     1     -18.365 -29.886   2.432  0.00  0.00    +0.066 A 
ATOM     25  C3  UNL     1     -19.105 -30.355   3.515  0.00  0.00    +0.024 A 
ATOM     26  C4  UNL     1     -18.520 -31.437   4.017  0.00  0.00    +0.043 C 
ATOM     27  C17 UNL     1     -20.273 -29.685   3.885  0.00  0.00    +0.048 A 
ATOM     28  S2  UNL     1     -21.381 -29.991   5.111  0.00  0.00    -0.075 S 
ATOM     29  C18 UNL     1     -22.343 -28.664   4.691  0.00  0.00    +0.157 A 
ATOM     30  N5  UNL     1     -21.837 -27.989   3.630  0.00  0.00    -0.247 NA
ATOM     31  C19 UNL     1     -20.686 -28.556   3.183  0.00  0.00    +0.079 A 
ATOM     32  C20 UNL     1     -19.941 -28.074   2.093  0.00  0.00    +0.031 A 
ATOM     33  C21 UNL     1     -18.763 -28.748   1.709  0.00  0.00    +0.028 A 
ENDBRANCH  20  26
ENDBRANCH  18  20
ENDBRANCH   1  18
TORSDOF 6
ENDMDL
MODEL 7
REMARK minimizedAffinity -6.49325895
REMARK minimizedRMSD -1
REMARK  Name = /home/tchapet/Post-Doc/ARTICLES-DOSSIERS-DES-ARTICLES-EN-REDACTION/NOUVELS-AXES-DE-RECHERCHE-A-REGARDER-URGEMMENT/ARTICLES-EN-REDACTIONS/ARTICLE_MVOTO/Paper2_Sensors_ActuatorsB/docking_rerun/ligands/1712.pdb
REMARK  6 active torsions:
REMARK  status: ('A' for Active; 'I' for Inactive)
REMARK    1  A    between atoms: C4_6  and  C5_7
REMARK    2  A    between atoms: C5_7  and  N2_8
REMARK    3  A    between atoms: N2_8  and  C6_9
REMARK    4  A    between atoms: C9_12  and  S1_15
REMARK    5  A    between atoms: S1_15  and  N3_18
REMARK    6  A    between atoms: N3_18  and  C12_19
REMARK                            x       y       z     vdW  Elec       q    Type
REMARK                         _______ _______ _______ _____ _____    ______ ____
ROOT
ATOM      1  C6  UNL     1       1.093  -7.731   1.373  0.00  0.00    +0.027 A 
ATOM      2  C7  UNL     1       1.811  -8.345   0.334  0.00  0.00    +0.025 A 
ATOM      3  C8  UNL     1       1.451  -9.615  -0.125  0.00  0.00    +0.030 A 
ATOM      4  C9  UNL     1       0.371 -10.293   0.453  0.00  0.00    +0.109 A 
ATOM      5  C10 UNL     1      -0.353  -9.687   1.487  0.00  0.00    +0.030 A 
ATOM      6  C11 UNL     1       0.005  -8.416   1.947  0.00  0.00    +0.025 A 
ENDROOT
BRANCH   4   7
ATOM      7  S1  UNL     1      -0.066 -11.899  -0.122  0.00  0.00    +0.073 S 
ATOM      8  O2  UNL     1       0.224 -12.902   0.959  0.00  0.00    -0.150 OA
ATOM      9  O3  UNL     1       0.726 -12.254  -1.348  0.00  0.00    -0.150 OA
BRANCH   7  10
ATOM     10  N3  UNL     1      -1.755 -11.943  -0.510  0.00  0.00    -0.199 N 
ATOM     11  H8  UNL     1      -2.335 -12.710  -0.102  0.00  0.00    +0.175 HD
BRANCH  10  12
ATOM     12  C12 UNL     1      -2.366 -10.952  -1.345  0.00  0.00    +0.138 A 
ATOM     13  C13 UNL     1      -3.115  -9.916  -0.773  0.00  0.00    +0.045 A 
ATOM     14  C14 UNL     1      -3.698  -8.953  -1.601  0.00  0.00    +0.005 A 
ATOM     15  C15 UNL     1      -3.528  -9.031  -2.984  0.00  0.00    +0.020 A 
ATOM     16  C16 UNL     1      -2.775 -10.076  -3.521  0.00  0.00    +0.113 A 
ATOM     17  N4  UNL     1      -2.216 -11.005  -2.700  0.00  0.00    -0.239 NA
ENDBRANCH  10  12
ENDBRANCH   7  10
ENDBRANCH   4   7
BRANCH   1  18
ATOM     18  N2  UNL     1       1.487  -6.421   1.821  0.00  0.00    -0.340 N 
ATOM     19  H3  UNL     1       2.424  -6.061   1.526  0.00  0.00    +0.146 HD
BRANCH  18  20
ATOM     20  C5  UNL     1       0.628  -5.561   2.639  0.00  0.00    +0.143 C 
BRANCH  20  26
ATOM     21  O1  UNL     1      -0.767  -7.023   5.007  0.00  0.00    -0.268 OA
ATOM     22  C1  UNL     1       0.307  -6.382   5.140  0.00  0.00    +0.266 C 
ATOM     23  N1  UNL     1       1.022  -6.274   6.367  0.00  0.00    -0.176 NA
ATOM     24  C2  UNL     1       2.051  -5.554   6.048  0.00  0.00    +0.066 A 
ATOM     25  C3  UNL     1       2.078  -5.176   4.708  0.00  0.00    +0.024 A 
ATOM     26  C4  UNL     1       1.005  -5.656   4.088  0.00  0.00    +0.043 C 
ATOM     27  C17 UNL     1       3.149  -4.415   4.235  0.00  0.00    +0.048 A 
ATOM     28  S2  UNL     1       3.487  -3.815   2.701  0.00  0.00    -0.075 S 
ATOM     29  C18 UNL     1       4.931  -3.093   3.207  0.00  0.00    +0.157 A 
ATOM     30  N5  UNL     1       5.164  -3.300   4.527  0.00  0.00    -0.247 NA
ATOM     31  C19 UNL     1       4.174  -4.035   5.096  0.00  0.00    +0.079 A 
ATOM     32  C20 UNL     1       4.150  -4.408   6.452  0.00  0.00    +0.031 A 
ATOM     33  C21 UNL     1       3.074  -5.181   6.937  0.00  0.00    +0.028 A 
ENDBRANCH  20  26
ENDBRANCH  18  20
ENDBRANCH   1  18
TORSDOF 6
ENDMDL
MODEL 8
REMARK minimizedAffinity -6.46103621
REMARK minimizedRMSD -1
REMARK  Name = /home/tchapet/Post-Doc/ARTICLES-DOSSIERS-DES-ARTICLES-EN-REDACTION/NOUVELS-AXES-DE-RECHERCHE-A-REGARDER-URGEMMENT/ARTICLES-EN-REDACTIONS/ARTICLE_MVOTO/Paper2_Sensors_ActuatorsB/docking_rerun/ligands/1712.pdb
REMARK  6 active torsions:
REMARK  status: ('A' for Active; 'I' for Inactive)
REMARK    1  A    between atoms: C4_6  and  C5_7
REMARK    2  A    between atoms: C5_7  and  N2_8
REMARK    3  A    between atoms: N2_8  and  C6_9
REMARK    4  A    between atoms: C9_12  and  S1_15
REMARK    5  A    between atoms: S1_15  and  N3_18
REMARK    6  A    between atoms: N3_18  and  C12_19
REMARK                            x       y       z     vdW  Elec       q    Type
REMARK                         _______ _______ _______ _____ _____    ______ ____
ROOT
ATOM      1  C6  UNL     1       1.079  -7.355   0.248  0.00  0.00    +0.027 A 
ATOM      2  C7  UNL     1       0.382  -7.917   1.329  0.00  0.00    +0.025 A 
ATOM      3  C8  UNL     1       0.058  -9.277   1.335  0.00  0.00    +0.030 A 
ATOM      4  C9  UNL     1       0.421 -10.092   0.258  0.00  0.00    +0.109 A 
ATOM      5  C10 UNL     1       1.120  -9.541  -0.823  0.00  0.00    +0.030 A 
ATOM      6  C11 UNL     1       1.446  -8.181  -0.831  0.00  0.00    +0.025 A 
ENDROOT
BRANCH   4   7
ATOM      7  S1  UNL     1      -0.004 -11.801   0.268  0.00  0.00    +0.073 S 
ATOM      8  O2  UNL     1       0.067 -12.315   1.678  0.00  0.00    -0.150 OA
ATOM      9  O3  UNL     1       0.946 -12.587  -0.590  0.00  0.00    -0.150 OA
BRANCH   7  10
ATOM     10  N3  UNL     1      -1.614 -12.009  -0.340  0.00  0.00    -0.199 N 
ATOM     11  H8  UNL     1      -2.124 -12.888  -0.097  0.00  0.00    +0.175 HD
BRANCH  10  12
ATOM     12  C12 UNL     1      -2.258 -11.006  -1.135  0.00  0.00    +0.138 A 
ATOM     13  C13 UNL     1      -3.077 -10.045  -0.527  0.00  0.00    +0.045 A 
ATOM     14  C14 UNL     1      -3.691  -9.069  -1.316  0.00  0.00    +0.005 A 
ATOM     15  C15 UNL     1      -3.485  -9.059  -2.695  0.00  0.00    +0.020 A 
ATOM     16  C16 UNL     1      -2.663 -10.031  -3.269  0.00  0.00    +0.113 A 
ATOM     17  N4  UNL     1      -2.074 -10.974  -2.486  0.00  0.00    -0.239 NA
ENDBRANCH  10  12
ENDBRANCH   7  10
ENDBRANCH   4   7
BRANCH   1  18
ATOM     18  N2  UNL     1       1.401  -5.951   0.273  0.00  0.00    -0.340 N 
ATOM     19  H3  UNL     1       1.851  -5.535  -0.575  0.00  0.00    +0.146 HD
BRANCH  18  20
ATOM     20  C5  UNL     1       1.099  -5.080   1.411  0.00  0.00    +0.143 C 
BRANCH  20  26
ATOM     21  O1  UNL     1       3.396  -3.435   0.103  0.00  0.00    -0.268 OA
ATOM     22  C1  UNL     1       3.384  -3.736   1.325  0.00  0.00    +0.266 C 
ATOM     23  N1  UNL     1       4.391  -3.341   2.251  0.00  0.00    -0.176 NA
ATOM     24  C2  UNL     1       3.978  -3.846   3.370  0.00  0.00    +0.066 A 
ATOM     25  C3  UNL     1       2.777  -4.544   3.263  0.00  0.00    +0.024 A 
ATOM     26  C4  UNL     1       2.360  -4.519   2.001  0.00  0.00    +0.043 C 
ATOM     27  C17 UNL     1       2.215  -5.116   4.406  0.00  0.00    +0.048 A 
ATOM     28  S2  UNL     1       0.799  -5.996   4.620  0.00  0.00    -0.075 S 
ATOM     29  C18 UNL     1       1.065  -6.186   6.280  0.00  0.00    +0.157 A 
ATOM     30  N5  UNL     1       2.216  -5.590   6.678  0.00  0.00    -0.247 NA
ATOM     31  C19 UNL     1       2.854  -4.996   5.637  0.00  0.00    +0.079 A 
ATOM     32  C20 UNL     1       4.069  -4.299   5.751  0.00  0.00    +0.031 A 
ATOM     33  C21 UNL     1       4.641  -3.713   4.602  0.00  0.00    +0.028 A 
ENDBRANCH  20  26
ENDBRANCH  18  20
ENDBRANCH   1  18
TORSDOF 6
ENDMDL
MODEL 9
REMARK minimizedAffinity -6.45774126
REMARK minimizedRMSD -1
REMARK  Name = /home/tchapet/Post-Doc/ARTICLES-DOSSIERS-DES-ARTICLES-EN-REDACTION/NOUVELS-AXES-DE-RECHERCHE-A-REGARDER-URGEMMENT/ARTICLES-EN-REDACTIONS/ARTICLE_MVOTO/Paper2_Sensors_ActuatorsB/docking_rerun/ligands/1712.pdb
REMARK  6 active torsions:
REMARK  status: ('A' for Active; 'I' for Inactive)
REMARK    1  A    between atoms: C4_6  and  C5_7
REMARK    2  A    between atoms: C5_7  and  N2_8
REMARK    3  A    between atoms: N2_8  and  C6_9
REMARK    4  A    between atoms: C9_12  and  S1_15
REMARK    5  A    between atoms: S1_15  and  N3_18
REMARK    6  A    between atoms: N3_18  and  C12_19
REMARK                            x       y       z     vdW  Elec       q    Type
REMARK                         _______ _______ _______ _____ _____    ______ ____
ROOT
ATOM      1  C6  UNL     1      16.386   7.360  13.626  0.00  0.00    +0.027 A 
ATOM      2  C7  UNL     1      15.424   7.842  14.529  0.00  0.00    +0.025 A 
ATOM      3  C8  UNL     1      15.805   8.307  15.791  0.00  0.00    +0.030 A 
ATOM      4  C9  UNL     1      17.151   8.290  16.171  0.00  0.00    +0.109 A 
ATOM      5  C10 UNL     1      18.117   7.815  15.277  0.00  0.00    +0.030 A 
ATOM      6  C11 UNL     1      17.739   7.350  14.013  0.00  0.00    +0.025 A 
ENDROOT
BRANCH   4   7
ATOM      7  S1  UNL     1      17.619   8.865  17.769  0.00  0.00    +0.073 S 
ATOM      8  O2  UNL     1      18.890   8.177  18.184  0.00  0.00    -0.150 OA
ATOM      9  O3  UNL     1      16.545   8.561  18.775  0.00  0.00    -0.150 OA
BRANCH   7  10
ATOM     10  N3  UNL     1      17.879  10.578  17.724  0.00  0.00    -0.199 N 
ATOM     11  H8  UNL     1      17.589  11.143  18.553  0.00  0.00    +0.175 HD
BRANCH  10  12
ATOM     12  C12 UNL     1      18.496  11.220  16.602  0.00  0.00    +0.138 A 
ATOM     13  C13 UNL     1      17.715  11.930  15.680  0.00  0.00    +0.045 A 
ATOM     14  C14 UNL     1      18.335  12.558  14.597  0.00  0.00    +0.005 A 
ATOM     15  C15 UNL     1      19.719  12.473  14.442  0.00  0.00    +0.020 A 
ATOM     16  C16 UNL     1      20.467  11.757  15.378  0.00  0.00    +0.113 A 
ATOM     17  N4  UNL     1      19.847  11.152  16.426  0.00  0.00    -0.239 NA
ENDBRANCH  10  12
ENDBRANCH   7  10
ENDBRANCH   4   7
BRANCH   1  18
ATOM     18  N2  UNL     1      15.962   6.891  12.333  0.00  0.00    -0.340 N 
ATOM     19  H3  UNL     1      14.969   7.057  12.050  0.00  0.00    +0.146 HD
BRANCH  18  20
ATOM     20  C5  UNL     1      16.862   6.224  11.388  0.00  0.00    +0.143 C 
BRANCH  20  26
ATOM     21  O1  UNL     1      16.686   3.341  12.549  0.00  0.00    -0.268 OA
ATOM     22  C1  UNL     1      16.167   3.666  11.450  0.00  0.00    +0.266 C 
ATOM     23  N1  UNL     1      15.420   2.774  10.629  0.00  0.00    -0.176 NA
ATOM     24  C2  UNL     1      15.070   3.516   9.626  0.00  0.00    +0.066 A 
ATOM     25  C3  UNL     1      15.523   4.830   9.716  0.00  0.00    +0.024 A 
ATOM     26  C4  UNL     1      16.226   4.983  10.833  0.00  0.00    +0.043 C 
ATOM     27  C17 UNL     1      15.191   5.737   8.707  0.00  0.00    +0.048 A 
ATOM     28  S2  UNL     1      15.560   7.366   8.519  0.00  0.00    -0.075 S 
ATOM     29  C18 UNL     1      14.720   7.477   7.055  0.00  0.00    +0.157 A 
ATOM     30  N5  UNL     1      14.160   6.293   6.703  0.00  0.00    -0.247 NA
ATOM     31  C19 UNL     1      14.423   5.327   7.621  0.00  0.00    +0.079 A 
ATOM     32  C20 UNL     1      13.968   4.001   7.521  0.00  0.00    +0.031 A 
ATOM     33  C21 UNL     1      14.294   3.080   8.539  0.00  0.00    +0.028 A 
ENDBRANCH  20  26
ENDBRANCH  18  20
ENDBRANCH   1  18
TORSDOF 6
ENDMDL
