MODEL 1
REMARK minimizedAffinity -6.59992743
REMARK minimizedRMSD -1
REMARK  Name = /home/tchapet/Post-Doc/ARTICLES-DOSSIERS-DES-ARTICLES-EN-REDACTION/NOUVELS-AXES-DE-RECHERCHE-A-REGARDER-URGEMMENT/ARTICLES-EN-REDACTIONS/ARTICLE_MVOTO/Paper2_Sensors_ActuatorsB/docking_rerun/ligands/1712.pdb
REMARK  6 active torsions:
REMARK  status: ('A' for Active; 'I' for Inactive)
REMARK    1  A    between atoms: C4_6  and  C5_7
REMARK    2  A    between atoms: C5_7  and  N2_8
REMARK    3  A    between atoms: N2_8  and  C6_9
REMARK    4  A    between atoms: C9_12  and  S1_15
REMARK    5  A    between atoms: S1_15  and  N3_18
REMARK    6  A    between atoms: N3_18  and  C12_19
REMARK                            x       y       z     vdW  Elec       q    Type
REMARK                         _______ _______ _______ _____ _____    ______ ____
ROOT
ATOM      1  C6  UNL     1       6.465  18.168  23.542  0.00  0.00    +0.027 A 
ATOM      2  C7  UNL     1       7.866  18.254  23.566  0.00  0.00    +0.025 A 
ATOM      3  C8  UNL     1       8.524  18.841  24.651  0.00  0.00    +0.030 A 
ATOM      4  C9  UNL     1       7.790  19.356  25.725  0.00  0.00    +0.109 A 
ATOM      5  C10 UNL     1       6.392  19.272  25.711  0.00  0.00    +0.030 A 
ATOM      6  C11 UNL     1       5.732  18.684  24.627  0.00  0.00    +0.025 A 
ENDROOT
BRANCH   4   7
ATOM      7  S1  UNL     1       8.626  20.107  27.080  0.00  0.00    +0.073 S 
ATOM      8  O2  UNL     1       7.780  21.226  27.619  0.00  0.00    -0.150 OA
ATOM      9  O3  UNL     1       9.953  20.660  26.642  0.00  0.00    -0.150 OA
BRANCH   7  10
ATOM     10  N3  UNL     1       8.891  18.933  28.328  0.00  0.00    -0.199 N 
ATOM     11  H8  UNL     1       9.801  18.420  28.337  0.00  0.00    +0.175 HD
BRANCH  10  12
ATOM     12  C12 UNL     1       7.916  18.675  29.345  0.00  0.00    +0.138 A 
ATOM     13  C13 UNL     1       6.889  17.749  29.117  0.00  0.00    +0.045 A 
ATOM     14  C14 UNL     1       5.951  17.504  30.122  0.00  0.00    +0.005 A 
ATOM     15  C15 UNL     1       6.043  18.180  31.340  0.00  0.00    +0.020 A 
ATOM     16  C16 UNL     1       7.078  19.097  31.533  0.00  0.00    +0.113 A 
ATOM     17  N4  UNL     1       7.982  19.323  30.543  0.00  0.00    -0.239 NA
ENDBRANCH  10  12
ENDBRANCH   7  10
ENDBRANCH   4   7
BRANCH   1  18
ATOM     18  N2  UNL     1       5.818  17.556  22.411  0.00  0.00    -0.340 N 
ATOM     19  H3  UNL     1       4.780  17.656  22.325  0.00  0.00    +0.146 HD
BRANCH  18  20
ATOM     20  C5  UNL     1       6.545  16.830  21.367  0.00  0.00    +0.143 C 
BRANCH  20  26
ATOM     21  O1  UNL     1       4.695  15.118  23.193  0.00  0.00    -0.268 OA
ATOM     22  C1  UNL     1       5.077  14.733  22.058  0.00  0.00    +0.266 C 
ATOM     23  N1  UNL     1       4.691  13.497  21.466  0.00  0.00    -0.176 NA
ATOM     24  C2  UNL     1       5.290  13.518  20.317  0.00  0.00    +0.066 A 
ATOM     25  C3  UNL     1       6.043  14.669  20.098  0.00  0.00    +0.024 A 
ATOM     26  C4  UNL     1       5.957  15.465  21.159  0.00  0.00    +0.043 C 
ATOM     27  C17 UNL     1       6.720  14.822  18.886  0.00  0.00    +0.048 A 
ATOM     28  S2  UNL     1       7.687  16.070  18.310  0.00  0.00    -0.075 S 
ATOM     29  C18 UNL     1       7.972  15.286  16.838  0.00  0.00    +0.157 A 
ATOM     30  N5  UNL     1       7.342  14.087  16.775  0.00  0.00    -0.247 NA
ATOM     31  C19 UNL     1       6.647  13.830  17.913  0.00  0.00    +0.079 A 
ATOM     32  C20 UNL     1       5.894  12.663  18.130  0.00  0.00    +0.031 A 
ATOM     33  C21 UNL     1       5.203  12.503  19.349  0.00  0.00    +0.028 A 
ENDBRANCH  20  26
ENDBRANCH  18  20
ENDBRANCH   1  18
TORSDOF 6
ENDMDL
MODEL 2
REMARK minimizedAffinity -6.56738615
REMARK minimizedRMSD -1
REMARK  Name = /home/tchapet/Post-Doc/ARTICLES-DOSSIERS-DES-ARTICLES-EN-REDACTION/NOUVELS-AXES-DE-RECHERCHE-A-REGARDER-URGEMMENT/ARTICLES-EN-REDACTIONS/ARTICLE_MVOTO/Paper2_Sensors_ActuatorsB/docking_rerun/ligands/1712.pdb
REMARK  6 active torsions:
REMARK  status: ('A' for Active; 'I' for Inactive)
REMARK    1  A    between atoms: C4_6  and  C5_7
REMARK    2  A    between atoms: C5_7  and  N2_8
REMARK    3  A    between atoms: N2_8  and  C6_9
REMARK    4  A    between atoms: C9_12  and  S1_15
REMARK    5  A    between atoms: S1_15  and  N3_18
REMARK    6  A    between atoms: N3_18  and  C12_19
REMARK                            x       y       z     vdW  Elec       q    Type
REMARK                         _______ _______ _______ _____ _____    ______ ____
ROOT
ATOM      1  C6  UNL     1       7.799  16.599  21.640  0.00  0.00    +0.027 A 
ATOM      2  C7  UNL     1       6.593  16.949  22.270  0.00  0.00    +0.025 A 
ATOM      3  C8  UNL     1       6.593  17.790  23.386  0.00  0.00    +0.030 A 
ATOM      4  C9  UNL     1       7.798  18.289  23.892  0.00  0.00    +0.109 A 
ATOM      5  C10 UNL     1       9.004  17.949  23.269  0.00  0.00    +0.030 A 
ATOM      6  C11 UNL     1       9.007  17.108  22.151  0.00  0.00    +0.025 A 
ENDROOT
BRANCH   4   7
ATOM      7  S1  UNL     1       7.788  19.337  25.308  0.00  0.00    +0.073 S 
ATOM      8  O2  UNL     1       6.526  19.096  26.087  0.00  0.00    -0.150 OA
ATOM      9  O3  UNL     1       7.844  20.781  24.896  0.00  0.00    -0.150 OA
BRANCH   7  10
ATOM     10  N3  UNL     1       9.159  18.985  26.308  0.00  0.00    -0.199 N 
ATOM     11  H8  UNL     1       9.593  18.037  26.235  0.00  0.00    +0.175 HD
BRANCH  10  12
ATOM     12  C12 UNL     1       9.716  19.958  27.199  0.00  0.00    +0.138 A 
ATOM     13  C13 UNL     1       8.999  20.369  28.331  0.00  0.00    +0.045 A 
ATOM     14  C14 UNL     1       9.561  21.313  29.193  0.00  0.00    +0.005 A 
ATOM     15  C15 UNL     1      10.826  21.837  28.922  0.00  0.00    +0.020 A 
ATOM     16  C16 UNL     1      11.513  21.407  27.786  0.00  0.00    +0.113 A 
ATOM     17  N4  UNL     1      10.950  20.487  26.957  0.00  0.00    -0.239 NA
ENDBRANCH  10  12
ENDBRANCH   7  10
ENDBRANCH   4   7
BRANCH   1  18
ATOM     18  N2  UNL     1       7.766  15.733  20.491  0.00  0.00    -0.340 N 
ATOM     19  H3  UNL     1       8.533  15.030  20.382  0.00  0.00    +0.146 HD
BRANCH  18  20
ATOM     20  C5  UNL     1       6.697  15.769  19.490  0.00  0.00    +0.143 C 
BRANCH  20  26
ATOM     21  O1  UNL     1       5.266  13.766  21.395  0.00  0.00    -0.268 OA
ATOM     22  C1  UNL     1       5.478  13.517  20.180  0.00  0.00    +0.266 C 
ATOM     23  N1  UNL     1       5.068  12.318  19.530  0.00  0.00    -0.176 NA
ATOM     24  C2  UNL     1       5.470  12.489  18.310  0.00  0.00    +0.066 A 
ATOM     25  C3  UNL     1       6.114  13.707  18.097  0.00  0.00    +0.024 A 
ATOM     26  C4  UNL     1       6.159  14.391  19.235  0.00  0.00    +0.043 C 
ATOM     27  C17 UNL     1       6.574  14.020  16.817  0.00  0.00    +0.048 A 
ATOM     28  S2  UNL     1       7.365  15.382  16.230  0.00  0.00    -0.075 S 
ATOM     29  C18 UNL     1       7.449  14.762  14.657  0.00  0.00    +0.157 A 
ATOM     30  N5  UNL     1       6.883  13.533  14.569  0.00  0.00    -0.247 NA
ATOM     31  C19 UNL     1       6.398  13.122  15.769  0.00  0.00    +0.079 A 
ATOM     32  C20 UNL     1       5.755  11.889  15.978  0.00  0.00    +0.031 A 
ATOM     33  C21 UNL     1       5.283  11.567  17.267  0.00  0.00    +0.028 A 
ENDBRANCH  20  26
ENDBRANCH  18  20
ENDBRANCH   1  18
TORSDOF 6
ENDMDL
MODEL 3
REMARK minimizedAffinity -6.50470877
REMARK minimizedRMSD -1
REMARK  Name = /home/tchapet/Post-Doc/ARTICLES-DOSSIERS-DES-ARTICLES-EN-REDACTION/NOUVELS-AXES-DE-RECHERCHE-A-REGARDER-URGEMMENT/ARTICLES-EN-REDACTIONS/ARTICLE_MVOTO/Paper2_Sensors_ActuatorsB/docking_rerun/ligands/1712.pdb
REMARK  6 active torsions:
REMARK  status: ('A' for Active; 'I' for Inactive)
REMARK    1  A    between atoms: C4_6  and  C5_7
REMARK    2  A    between atoms: C5_7  and  N2_8
REMARK    3  A    between atoms: N2_8  and  C6_9
REMARK    4  A    between atoms: C9_12  and  S1_15
REMARK    5  A    between atoms: S1_15  and  N3_18
REMARK    6  A    between atoms: N3_18  and  C12_19
REMARK                            x       y       z     vdW  Elec       q    Type
REMARK                         _______ _______ _______ _____ _____    ______ ____
ROOT
ATOM      1  C6  UNL     1       4.416  13.237  18.998  0.00  0.00    +0.027 A 
ATOM      2  C7  UNL     1       4.334  14.624  18.797  0.00  0.00    +0.025 A 
ATOM      3  C8  UNL     1       4.613  15.511  19.841  0.00  0.00    +0.030 A 
ATOM      4  C9  UNL     1       4.971  15.024  21.103  0.00  0.00    +0.109 A 
ATOM      5  C10 UNL     1       5.059  13.642  21.312  0.00  0.00    +0.030 A 
ATOM      6  C11 UNL     1       4.781  12.753  20.269  0.00  0.00    +0.025 A 
ENDROOT
BRANCH   4   7
ATOM      7  S1  UNL     1       5.307  16.149  22.416  0.00  0.00    +0.073 S 
ATOM      8  O2  UNL     1       4.460  15.783  23.602  0.00  0.00    -0.150 OA
ATOM      9  O3  UNL     1       4.988  17.557  21.999  0.00  0.00    -0.150 OA
BRANCH   7  10
ATOM     10  N3  UNL     1       6.981  16.057  22.853  0.00  0.00    -0.199 N 
ATOM     11  H8  UNL     1       7.263  15.368  23.586  0.00  0.00    +0.175 HD
BRANCH  10  12
ATOM     12  C12 UNL     1       7.974  16.876  22.222  0.00  0.00    +0.138 A 
ATOM     13  C13 UNL     1       8.835  17.662  22.999  0.00  0.00    +0.045 A 
ATOM     14  C14 UNL     1       9.802  18.448  22.368  0.00  0.00    +0.005 A 
ATOM     15  C15 UNL     1       9.903  18.443  20.977  0.00  0.00    +0.020 A 
ATOM     16  C16 UNL     1       9.029  17.648  20.233  0.00  0.00    +0.113 A 
ATOM     17  N4  UNL     1       8.093  16.891  20.864  0.00  0.00    -0.239 NA
ENDBRANCH  10  12
ENDBRANCH   7  10
ENDBRANCH   4   7
BRANCH   1  18
ATOM     18  N2  UNL     1       4.125  12.350  17.902  0.00  0.00    -0.340 N 
ATOM     19  H3  UNL     1       3.129  12.252  17.599  0.00  0.00    +0.146 HD
BRANCH  18  20
ATOM     20  C5  UNL     1       5.159  11.606  17.177  0.00  0.00    +0.143 C 
BRANCH  20  26
ATOM     21  O1  UNL     1       3.429  10.683  14.759  0.00  0.00    -0.268 OA
ATOM     22  C1  UNL     1       4.333  11.552  14.657  0.00  0.00    +0.266 C 
ATOM     23  N1  UNL     1       4.651  12.231  13.447  0.00  0.00    -0.176 NA
ATOM     24  C2  UNL     1       5.611  13.028  13.797  0.00  0.00    +0.066 A 
ATOM     25  C3  UNL     1       5.956  12.934  15.144  0.00  0.00    +0.024 A 
ATOM     26  C4  UNL     1       5.196  12.017  15.734  0.00  0.00    +0.043 C 
ATOM     27  C17 UNL     1       6.962  13.759  15.651  0.00  0.00    +0.048 A 
ATOM     28  S2  UNL     1       7.598  13.902  17.200  0.00  0.00    -0.075 S 
ATOM     29  C18 UNL     1       8.686  15.111  16.734  0.00  0.00    +0.157 A 
ATOM     30  N5  UNL     1       8.575  15.411  15.417  0.00  0.00    -0.247 NA
ATOM     31  C19 UNL     1       7.617  14.659  14.815  0.00  0.00    +0.079 A 
ATOM     32  C20 UNL     1       7.278  14.755  13.454  0.00  0.00    +0.031 A 
ATOM     33  C21 UNL     1       6.260  13.929  12.936  0.00  0.00    +0.028 A 
ENDBRANCH  20  26
ENDBRANCH  18  20
ENDBRANCH   1  18
TORSDOF 6
ENDMDL
MODEL 4
REMARK minimizedAffinity -6.3132782
REMARK minimizedRMSD -1
REMARK  Name = /home/tchapet/Post-Doc/ARTICLES-DOSSIERS-DES-ARTICLES-EN-REDACTION/NOUVELS-AXES-DE-RECHERCHE-A-REGARDER-URGEMMENT/ARTICLES-EN-REDACTIONS/ARTICLE_MVOTO/Paper2_Sensors_ActuatorsB/docking_rerun/ligands/1712.pdb
REMARK  6 active torsions:
REMARK  status: ('A' for Active; 'I' for Inactive)
REMARK    1  A    between atoms: C4_6  and  C5_7
REMARK    2  A    between atoms: C5_7  and  N2_8
REMARK    3  A    between atoms: N2_8  and  C6_9
REMARK    4  A    between atoms: C9_12  and  S1_15
REMARK    5  A    between atoms: S1_15  and  N3_18
REMARK    6  A    between atoms: N3_18  and  C12_19
REMARK                            x       y       z     vdW  Elec       q    Type
REMARK                         _______ _______ _______ _____ _____    ______ ____
ROOT
ATOM      1  C6  UNL     1       5.593  -4.654  31.430  0.00  0.00    +0.027 A 
ATOM      2  C7  UNL     1       6.677  -5.471  31.073  0.00  0.00    +0.025 A 
ATOM      3  C8  UNL     1       6.814  -5.936  29.762  0.00  0.00    +0.030 A 
ATOM      4  C9  UNL     1       5.866  -5.595  28.791  0.00  0.00    +0.109 A 
ATOM      5  C10 UNL     1       4.783  -4.778  29.137  0.00  0.00    +0.030 A 
ATOM      6  C11 UNL     1       4.645  -4.311  30.448  0.00  0.00    +0.025 A 
ENDROOT
BRANCH   4   7
ATOM      7  S1  UNL     1       6.039  -6.198  27.145  0.00  0.00    +0.073 S 
ATOM      8  O2  UNL     1       5.604  -5.128  26.183  0.00  0.00    -0.150 OA
ATOM      9  O3  UNL     1       5.190  -7.420  26.938  0.00  0.00    -0.150 OA
BRANCH   7  10
ATOM     10  N3  UNL     1       7.696  -6.606  26.841  0.00  0.00    -0.199 N 
ATOM     11  H8  UNL     1       8.421  -5.869  26.993  0.00  0.00    +0.175 HD
BRANCH  10  12
ATOM     12  C12 UNL     1       8.087  -7.917  26.418  0.00  0.00    +0.138 A 
ATOM     13  C13 UNL     1       8.267  -8.193  25.056  0.00  0.00    +0.045 A 
ATOM     14  C14 UNL     1       8.657  -9.476  24.662  0.00  0.00    +0.005 A 
ATOM     15  C15 UNL     1       8.863 -10.466  25.624  0.00  0.00    +0.020 A 
ATOM     16  C16 UNL     1       8.674 -10.157  26.972  0.00  0.00    +0.113 A 
ATOM     17  N4  UNL     1       8.294  -8.904  27.337  0.00  0.00    -0.239 NA
ENDBRANCH  10  12
ENDBRANCH   7  10
ENDBRANCH   4   7
BRANCH   1  18
ATOM     18  N2  UNL     1       5.481  -4.189  32.788  0.00  0.00    -0.340 N 
ATOM     19  H3  UNL     1       5.987  -3.311  33.051  0.00  0.00    +0.146 HD
BRANCH  18  20
ATOM     20  C5  UNL     1       4.672  -4.867  33.804  0.00  0.00    +0.143 C 
BRANCH  20  26
ATOM     21  O1  UNL     1       5.913  -2.944  35.915  0.00  0.00    -0.268 OA
ATOM     22  C1  UNL     1       6.019  -4.196  35.987  0.00  0.00    +0.266 C 
ATOM     23  N1  UNL     1       6.686  -4.877  37.045  0.00  0.00    -0.176 NA
ATOM     24  C2  UNL     1       6.543  -6.126  36.730  0.00  0.00    +0.066 A 
ATOM     25  C3  UNL     1       5.835  -6.329  35.548  0.00  0.00    +0.024 A 
ATOM     26  C4  UNL     1       5.488  -5.155  35.030  0.00  0.00    +0.043 C 
ATOM     27  C17 UNL     1       5.593  -7.633  35.112  0.00  0.00    +0.048 A 
ATOM     28  S2  UNL     1       4.777  -8.215  33.763  0.00  0.00    -0.075 S 
ATOM     29  C18 UNL     1       5.062  -9.830  34.179  0.00  0.00    +0.157 A 
ATOM     30  N5  UNL     1       5.769  -9.938  35.331  0.00  0.00    -0.247 NA
ATOM     31  C19 UNL     1       6.064  -8.717  35.848  0.00  0.00    +0.079 A 
ATOM     32  C20 UNL     1       6.785  -8.519  37.039  0.00  0.00    +0.031 A 
ATOM     33  C21 UNL     1       7.029  -7.205  37.489  0.00  0.00    +0.028 A 
ENDBRANCH  20  26
ENDBRANCH  18  20
ENDBRANCH   1  18
TORSDOF 6
ENDMDL
MODEL 5
REMARK minimizedAffinity -6.28766775
REMARK minimizedRMSD -1
REMARK  Name = /home/tchapet/Post-Doc/ARTICLES-DOSSIERS-DES-ARTICLES-EN-REDACTION/NOUVELS-AXES-DE-RECHERCHE-A-REGARDER-URGEMMENT/ARTICLES-EN-REDACTIONS/ARTICLE_MVOTO/Paper2_Sensors_ActuatorsB/docking_rerun/ligands/1712.pdb
REMARK  6 active torsions:
REMARK  status: ('A' for Active; 'I' for Inactive)
REMARK    1  A    between atoms: C4_6  and  C5_7
REMARK    2  A    between atoms: C5_7  and  N2_8
REMARK    3  A    between atoms: N2_8  and  C6_9
REMARK    4  A    between atoms: C9_12  and  S1_15
REMARK    5  A    between atoms: S1_15  and  N3_18
REMARK    6  A    between atoms: N3_18  and  C12_19
REMARK                            x       y       z     vdW  Elec       q    Type
REMARK                         _______ _______ _______ _____ _____    ______ ____
ROOT
ATOM      1  C6  UNL     1       6.062  -4.801  33.341  0.00  0.00    +0.027 A 
ATOM      2  C7  UNL     1       5.568  -6.086  33.621  0.00  0.00    +0.025 A 
ATOM      3  C8  UNL     1       5.557  -6.572  34.931  0.00  0.00    +0.030 A 
ATOM      4  C9  UNL     1       6.046  -5.784  35.980  0.00  0.00    +0.109 A 
ATOM      5  C10 UNL     1       6.537  -4.501  35.710  0.00  0.00    +0.030 A 
ATOM      6  C11 UNL     1       6.548  -4.012  34.400  0.00  0.00    +0.025 A 
ENDROOT
BRANCH   4   7
ATOM      7  S1  UNL     1       6.041  -6.411  37.625  0.00  0.00    +0.073 S 
ATOM      8  O2  UNL     1       7.414  -6.924  37.958  0.00  0.00    -0.150 OA
ATOM      9  O3  UNL     1       5.050  -7.532  37.760  0.00  0.00    -0.150 OA
BRANCH   7  10
ATOM     10  N3  UNL     1       5.614  -5.148  38.733  0.00  0.00    -0.199 N 
ATOM     11  H8  UNL     1       6.358  -4.772  39.363  0.00  0.00    +0.175 HD
BRANCH  10  12
ATOM     12  C12 UNL     1       4.292  -4.600  38.783  0.00  0.00    +0.138 A 
ATOM     13  C13 UNL     1       3.317  -5.187  39.601  0.00  0.00    +0.045 A 
ATOM     14  C14 UNL     1       2.035  -4.635  39.644  0.00  0.00    +0.005 A 
ATOM     15  C15 UNL     1       1.736  -3.508  38.877  0.00  0.00    +0.020 A 
ATOM     16  C16 UNL     1       2.731  -2.949  38.073  0.00  0.00    +0.113 A 
ATOM     17  N4  UNL     1       3.973  -3.500  38.043  0.00  0.00    -0.239 NA
ENDBRANCH  10  12
ENDBRANCH   7  10
ENDBRANCH   4   7
BRANCH   1  18
ATOM     18  N2  UNL     1       6.058  -4.328  31.981  0.00  0.00    -0.340 N 
ATOM     19  H3  UNL     1       5.836  -3.320  31.812  0.00  0.00    +0.146 HD
BRANCH  18  20
ATOM     20  C5  UNL     1       6.378  -5.181  30.834  0.00  0.00    +0.143 C 
BRANCH  20  26
ATOM     21  O1  UNL     1       4.025  -3.160  30.572  0.00  0.00    -0.268 OA
ATOM     22  C1  UNL     1       4.400  -3.897  29.623  0.00  0.00    +0.266 C 
ATOM     23  N1  UNL     1       3.820  -3.874  28.322  0.00  0.00    -0.176 NA
ATOM     24  C2  UNL     1       4.507  -4.762  27.676  0.00  0.00    +0.066 A 
ATOM     25  C3  UNL     1       5.497  -5.373  28.442  0.00  0.00    +0.024 A 
ATOM     26  C4  UNL     1       5.473  -4.879  29.676  0.00  0.00    +0.043 C 
ATOM     27  C17 UNL     1       6.322  -6.333  27.853  0.00  0.00    +0.048 A 
ATOM     28  S2  UNL     1       7.595  -7.233  28.481  0.00  0.00    -0.075 S 
ATOM     29  C18 UNL     1       7.870  -8.029  27.014  0.00  0.00    +0.157 A 
ATOM     30  N5  UNL     1       7.009  -7.622  26.049  0.00  0.00    -0.247 NA
ATOM     31  C19 UNL     1       6.149  -6.680  26.516  0.00  0.00    +0.079 A 
ATOM     32  C20 UNL     1       5.148  -6.073  25.739  0.00  0.00    +0.031 A 
ATOM     33  C21 UNL     1       4.314  -5.098  26.325  0.00  0.00    +0.028 A 
ENDBRANCH  20  26
ENDBRANCH  18  20
ENDBRANCH   1  18
TORSDOF 6
ENDMDL
MODEL 6
REMARK minimizedAffinity -6.2415657
REMARK minimizedRMSD -1
REMARK  Name = /home/tchapet/Post-Doc/ARTICLES-DOSSIERS-DES-ARTICLES-EN-REDACTION/NOUVELS-AXES-DE-RECHERCHE-A-REGARDER-URGEMMENT/ARTICLES-EN-REDACTIONS/ARTICLE_MVOTO/Paper2_Sensors_ActuatorsB/docking_rerun/ligands/1712.pdb
REMARK  6 active torsions:
REMARK  status: ('A' for Active; 'I' for Inactive)
REMARK    1  A    between atoms: C4_6  and  C5_7
REMARK    2  A    between atoms: C5_7  and  N2_8
REMARK    3  A    between atoms: N2_8  and  C6_9
REMARK    4  A    between atoms: C9_12  and  S1_15
REMARK    5  A    between atoms: S1_15  and  N3_18
REMARK    6  A    between atoms: N3_18  and  C12_19
REMARK                            x       y       z     vdW  Elec       q    Type
REMARK                         _______ _______ _______ _____ _____    ______ ____
ROOT
ATOM      1  C6  UNL     1       4.869  13.691  18.175  0.00  0.00    +0.027 A 
ATOM      2  C7  UNL     1       5.157  12.849  19.261  0.00  0.00    +0.025 A 
ATOM      3  C8  UNL     1       5.075  13.328  20.572  0.00  0.00    +0.030 A 
ATOM      4  C9  UNL     1       4.710  14.657  20.815  0.00  0.00    +0.109 A 
ATOM      5  C10 UNL     1       4.418  15.502  19.739  0.00  0.00    +0.030 A 
ATOM      6  C11 UNL     1       4.498  15.026  18.427  0.00  0.00    +0.025 A 
ENDROOT
BRANCH   4   7
ATOM      7  S1  UNL     1       4.623  15.254  22.470  0.00  0.00    +0.073 S 
ATOM      8  O2  UNL     1       5.458  14.370  23.354  0.00  0.00    -0.150 OA
ATOM      9  O3  UNL     1       3.204  15.242  22.962  0.00  0.00    -0.150 OA
BRANCH   7  10
ATOM     10  N3  UNL     1       5.230  16.876  22.540  0.00  0.00    -0.199 N 
ATOM     11  H8  UNL     1       4.542  17.662  22.505  0.00  0.00    +0.175 HD
BRANCH  10  12
ATOM     12  C12 UNL     1       6.629  17.157  22.669  0.00  0.00    +0.138 A 
ATOM     13  C13 UNL     1       7.093  17.950  23.726  0.00  0.00    +0.045 A 
ATOM     14  C14 UNL     1       8.461  18.207  23.841  0.00  0.00    +0.005 A 
ATOM     15  C15 UNL     1       9.350  17.673  22.907  0.00  0.00    +0.020 A 
ATOM     16  C16 UNL     1       8.854  16.887  21.866  0.00  0.00    +0.113 A 
ATOM     17  N4  UNL     1       7.519  16.649  21.769  0.00  0.00    -0.239 NA
ENDBRANCH  10  12
ENDBRANCH   7  10
ENDBRANCH   4   7
BRANCH   1  18
ATOM     18  N2  UNL     1       4.960  13.168  16.837  0.00  0.00    -0.340 N 
ATOM     19  H3  UNL     1       4.091  13.154  16.254  0.00  0.00    +0.146 HD
BRANCH  18  20
ATOM     20  C5  UNL     1       6.212  12.687  16.247  0.00  0.00    +0.143 C 
BRANCH  20  26
ATOM     21  O1  UNL     1       8.291  14.507  17.682  0.00  0.00    -0.268 OA
ATOM     22  C1  UNL     1       8.005  14.629  16.463  0.00  0.00    +0.266 C 
ATOM     23  N1  UNL     1       8.612  15.582  15.596  0.00  0.00    -0.176 NA
ATOM     24  C2  UNL     1       8.043  15.350  14.455  0.00  0.00    +0.066 A 
ATOM     25  C3  UNL     1       7.106  14.319  14.495  0.00  0.00    +0.024 A 
ATOM     26  C4  UNL     1       7.031  13.834  15.730  0.00  0.00    +0.043 C 
ATOM     27  C17 UNL     1       6.440  13.957  13.322  0.00  0.00    +0.048 A 
ATOM     28  S2  UNL     1       5.283  12.773  13.029  0.00  0.00    -0.075 S 
ATOM     29  C18 UNL     1       5.170  13.168  11.388  0.00  0.00    +0.157 A 
ATOM     30  N5  UNL     1       5.999  14.188  11.055  0.00  0.00    -0.247 NA
ATOM     31  C19 UNL     1       6.704  14.626  12.131  0.00  0.00    +0.079 A 
ATOM     32  C20 UNL     1       7.642  15.671  12.085  0.00  0.00    +0.031 A 
ATOM     33  C21 UNL     1       8.324  16.039  13.264  0.00  0.00    +0.028 A 
ENDBRANCH  20  26
ENDBRANCH  18  20
ENDBRANCH   1  18
TORSDOF 6
ENDMDL
MODEL 7
REMARK minimizedAffinity -6.17847872
REMARK minimizedRMSD -1
REMARK  Name = /home/tchapet/Post-Doc/ARTICLES-DOSSIERS-DES-ARTICLES-EN-REDACTION/NOUVELS-AXES-DE-RECHERCHE-A-REGARDER-URGEMMENT/ARTICLES-EN-REDACTIONS/ARTICLE_MVOTO/Paper2_Sensors_ActuatorsB/docking_rerun/ligands/1712.pdb
REMARK  6 active torsions:
REMARK  status: ('A' for Active; 'I' for Inactive)
REMARK    1  A    between atoms: C4_6  and  C5_7
REMARK    2  A    between atoms: C5_7  and  N2_8
REMARK    3  A    between atoms: N2_8  and  C6_9
REMARK    4  A    between atoms: C9_12  and  S1_15
REMARK    5  A    between atoms: S1_15  and  N3_18
REMARK    6  A    between atoms: N3_18  and  C12_19
REMARK                            x       y       z     vdW  Elec       q    Type
REMARK                         _______ _______ _______ _____ _____    ______ ____
ROOT
ATOM      1  C6  UNL     1       5.616  -4.646  31.454  0.00  0.00    +0.027 A 
ATOM      2  C7  UNL     1       6.645  -5.540  31.117  0.00  0.00    +0.025 A 
ATOM      3  C8  UNL     1       6.781  -6.004  29.805  0.00  0.00    +0.030 A 
ATOM      4  C9  UNL     1       5.887  -5.585  28.813  0.00  0.00    +0.109 A 
ATOM      5  C10 UNL     1       4.861  -4.691  29.140  0.00  0.00    +0.030 A 
ATOM      6  C11 UNL     1       4.723  -4.225  30.451  0.00  0.00    +0.025 A 
ENDROOT
BRANCH   4   7
ATOM      7  S1  UNL     1       6.059  -6.186  27.167  0.00  0.00    +0.073 S 
ATOM      8  O2  UNL     1       4.941  -7.148  26.878  0.00  0.00    -0.150 OA
ATOM      9  O3  UNL     1       7.374  -6.893  26.997  0.00  0.00    -0.150 OA
BRANCH   7  10
ATOM     10  N3  UNL     1       5.983  -4.863  26.049  0.00  0.00    -0.199 N 
ATOM     11  H8  UNL     1       6.747  -4.151  26.075  0.00  0.00    +0.175 HD
BRANCH  10  12
ATOM     12  C12 UNL     1       4.926  -4.742  25.090  0.00  0.00    +0.138 A 
ATOM     13  C13 UNL     1       3.691  -4.198  25.468  0.00  0.00    +0.045 A 
ATOM     14  C14 UNL     1       2.674  -4.080  24.517  0.00  0.00    +0.005 A 
ATOM     15  C15 UNL     1       2.896  -4.502  23.206  0.00  0.00    +0.020 A 
ATOM     16  C16 UNL     1       4.137  -5.040  22.863  0.00  0.00    +0.113 A 
ATOM     17  N4  UNL     1       5.115  -5.148  23.802  0.00  0.00    -0.239 NA
ENDBRANCH  10  12
ENDBRANCH   7  10
ENDBRANCH   4   7
BRANCH   1  18
ATOM     18  N2  UNL     1       5.503  -4.185  32.813  0.00  0.00    -0.340 N 
ATOM     19  H3  UNL     1       6.011  -3.310  33.080  0.00  0.00    +0.146 HD
BRANCH  18  20
ATOM     20  C5  UNL     1       4.690  -4.863  33.826  0.00  0.00    +0.143 C 
BRANCH  20  26
ATOM     21  O1  UNL     1       5.947  -2.962  35.946  0.00  0.00    -0.268 OA
ATOM     22  C1  UNL     1       6.044  -4.215  36.012  0.00  0.00    +0.266 C 
ATOM     23  N1  UNL     1       6.707  -4.907  37.065  0.00  0.00    -0.176 NA
ATOM     24  C2  UNL     1       6.555  -6.153  36.743  0.00  0.00    +0.066 A 
ATOM     25  C3  UNL     1       5.844  -6.344  35.560  0.00  0.00    +0.024 A 
ATOM     26  C4  UNL     1       5.505  -5.165  35.049  0.00  0.00    +0.043 C 
ATOM     27  C17 UNL     1       5.594  -7.644  35.117  0.00  0.00    +0.048 A 
ATOM     28  S2  UNL     1       4.772  -8.212  33.765  0.00  0.00    -0.075 S 
ATOM     29  C18 UNL     1       5.046  -9.832  34.172  0.00  0.00    +0.157 A 
ATOM     30  N5  UNL     1       5.753  -9.951  35.322  0.00  0.00    -0.247 NA
ATOM     31  C19 UNL     1       6.057  -8.735  35.846  0.00  0.00    +0.079 A 
ATOM     32  C20 UNL     1       6.781  -8.549  37.037  0.00  0.00    +0.031 A 
ATOM     33  C21 UNL     1       7.034  -7.239  37.495  0.00  0.00    +0.028 A 
ENDBRANCH  20  26
ENDBRANCH  18  20
ENDBRANCH   1  18
TORSDOF 6
ENDMDL
MODEL 8
REMARK minimizedAffinity -6.15869904
REMARK minimizedRMSD -1
REMARK  Name = /home/tchapet/Post-Doc/ARTICLES-DOSSIERS-DES-ARTICLES-EN-REDACTION/NOUVELS-AXES-DE-RECHERCHE-A-REGARDER-URGEMMENT/ARTICLES-EN-REDACTIONS/ARTICLE_MVOTO/Paper2_Sensors_ActuatorsB/docking_rerun/ligands/1712.pdb
REMARK  6 active torsions:
REMARK  status: ('A' for Active; 'I' for Inactive)
REMARK    1  A    between atoms: C4_6  and  C5_7
REMARK    2  A    between atoms: C5_7  and  N2_8
REMARK    3  A    between atoms: N2_8  and  C6_9
REMARK    4  A    between atoms: C9_12  and  S1_15
REMARK    5  A    between atoms: S1_15  and  N3_18
REMARK    6  A    between atoms: N3_18  and  C12_19
REMARK                            x       y       z     vdW  Elec       q    Type
REMARK                         _______ _______ _______ _____ _____    ______ ____
ROOT
ATOM      1  C6  UNL     1       6.065  -4.696  33.346  0.00  0.00    +0.027 A 
ATOM      2  C7  UNL     1       5.036  -5.524  33.822  0.00  0.00    +0.025 A 
ATOM      3  C8  UNL     1       4.681  -5.510  35.174  0.00  0.00    +0.030 A 
ATOM      4  C9  UNL     1       5.354  -4.673  36.071  0.00  0.00    +0.109 A 
ATOM      5  C10 UNL     1       6.379  -3.841  35.605  0.00  0.00    +0.030 A 
ATOM      6  C11 UNL     1       6.735  -3.853  34.253  0.00  0.00    +0.025 A 
ENDROOT
BRANCH   4   7
ATOM      7  S1  UNL     1       4.908  -4.673  37.775  0.00  0.00    +0.073 S 
ATOM      8  O2  UNL     1       3.784  -5.647  37.987  0.00  0.00    -0.150 OA
ATOM      9  O3  UNL     1       4.461  -3.304  38.204  0.00  0.00    -0.150 OA
BRANCH   7  10
ATOM     10  N3  UNL     1       6.270  -5.148  38.737  0.00  0.00    -0.199 N 
ATOM     11  H8  UNL     1       6.857  -4.397  39.164  0.00  0.00    +0.175 HD
BRANCH  10  12
ATOM     12  C12 UNL     1       6.586  -6.524  38.975  0.00  0.00    +0.138 A 
ATOM     13  C13 UNL     1       7.084  -7.322  37.936  0.00  0.00    +0.045 A 
ATOM     14  C14 UNL     1       7.394  -8.660  38.187  0.00  0.00    +0.005 A 
ATOM     15  C15 UNL     1       7.207  -9.189  39.465  0.00  0.00    +0.020 A 
ATOM     16  C16 UNL     1       6.709  -8.367  40.477  0.00  0.00    +0.113 A 
ATOM     17  N4  UNL     1       6.412  -7.067  40.214  0.00  0.00    -0.239 NA
ENDBRANCH  10  12
ENDBRANCH   7  10
ENDBRANCH   4   7
BRANCH   1  18
ATOM     18  N2  UNL     1       6.406  -4.731  31.948  0.00  0.00    -0.340 N 
ATOM     19  H3  UNL     1       6.981  -3.947  31.562  0.00  0.00    +0.146 HD
BRANCH  18  20
ATOM     20  C5  UNL     1       6.014  -5.823  31.054  0.00  0.00    +0.143 C 
BRANCH  20  26
ATOM     21  O1  UNL     1       3.693  -3.749  30.983  0.00  0.00    -0.268 OA
ATOM     22  C1  UNL     1       4.137  -4.311  29.948  0.00  0.00    +0.266 C 
ATOM     23  N1  UNL     1       3.658  -4.048  28.633  0.00  0.00    -0.176 NA
ATOM     24  C2  UNL     1       4.390  -4.818  27.892  0.00  0.00    +0.066 A 
ATOM     25  C3  UNL     1       5.317  -5.571  28.608  0.00  0.00    +0.024 A 
ATOM     26  C4  UNL     1       5.200  -5.305  29.905  0.00  0.00    +0.043 C 
ATOM     27  C17 UNL     1       6.182  -6.424  27.920  0.00  0.00    +0.048 A 
ATOM     28  S2  UNL     1       7.401  -7.443  28.470  0.00  0.00    -0.075 S 
ATOM     29  C18 UNL     1       7.785  -7.969  26.909  0.00  0.00    +0.157 A 
ATOM     30  N5  UNL     1       7.001  -7.383  25.971  0.00  0.00    -0.247 NA
ATOM     31  C19 UNL     1       6.111  -6.525  26.533  0.00  0.00    +0.079 A 
ATOM     32  C20 UNL     1       5.173  -5.772  25.804  0.00  0.00    +0.031 A 
ATOM     33  C21 UNL     1       4.300  -4.904  26.492  0.00  0.00    +0.028 A 
ENDBRANCH  20  26
ENDBRANCH  18  20
ENDBRANCH   1  18
TORSDOF 6
ENDMDL
MODEL 9
REMARK minimizedAffinity -6.13622284
REMARK minimizedRMSD -1
REMARK  Name = /home/tchapet/Post-Doc/ARTICLES-DOSSIERS-DES-ARTICLES-EN-REDACTION/NOUVELS-AXES-DE-RECHERCHE-A-REGARDER-URGEMMENT/ARTICLES-EN-REDACTIONS/ARTICLE_MVOTO/Paper2_Sensors_ActuatorsB/docking_rerun/ligands/1712.pdb
REMARK  6 active torsions:
REMARK  status: ('A' for Active; 'I' for Inactive)
REMARK    1  A    between atoms: C4_6  and  C5_7
REMARK    2  A    between atoms: C5_7  and  N2_8
REMARK    3  A    between atoms: N2_8  and  C6_9
REMARK    4  A    between atoms: C9_12  and  S1_15
REMARK    5  A    between atoms: S1_15  and  N3_18
REMARK    6  A    between atoms: N3_18  and  C12_19
REMARK                            x       y       z     vdW  Elec       q    Type
REMARK                         _______ _______ _______ _____ _____    ______ ____
ROOT
ATOM      1  C6  UNL     1       8.139  18.356  18.489  0.00  0.00    +0.027 A 
ATOM      2  C7  UNL     1       6.977  18.273  17.705  0.00  0.00    +0.025 A 
ATOM      3  C8  UNL     1       6.808  17.227  16.794  0.00  0.00    +0.030 A 
ATOM      4  C9  UNL     1       7.801  16.252  16.649  0.00  0.00    +0.109 A 
ATOM      5  C10 UNL     1       8.961  16.324  17.429  0.00  0.00    +0.030 A 
ATOM      6  C11 UNL     1       9.132  17.370  18.342  0.00  0.00    +0.025 A 
ENDROOT
BRANCH   4   7
ATOM      7  S1  UNL     1       7.585  14.945  15.488  0.00  0.00    +0.073 S 
ATOM      8  O2  UNL     1       8.795  14.876  14.598  0.00  0.00    -0.150 OA
ATOM      9  O3  UNL     1       6.366  15.186  14.643  0.00  0.00    -0.150 OA
BRANCH   7  10
ATOM     10  N3  UNL     1       7.400  13.440  16.326  0.00  0.00    -0.199 N 
ATOM     11  H8  UNL     1       8.046  12.656  16.081  0.00  0.00    +0.175 HD
BRANCH  10  12
ATOM     12  C12 UNL     1       6.414  13.259  17.349  0.00  0.00    +0.138 A 
ATOM     13  C13 UNL     1       6.746  13.474  18.693  0.00  0.00    +0.045 A 
ATOM     14  C14 UNL     1       5.769  13.301  19.677  0.00  0.00    +0.005 A 
ATOM     15  C15 UNL     1       4.477  12.918  19.314  0.00  0.00    +0.020 A 
ATOM     16  C16 UNL     1       4.180  12.712  17.966  0.00  0.00    +0.113 A 
ATOM     17  N4  UNL     1       5.144  12.884  17.023  0.00  0.00    -0.239 NA
ENDBRANCH  10  12
ENDBRANCH   7  10
ENDBRANCH   4   7
BRANCH   1  18
ATOM     18  N2  UNL     1       8.282  19.444  19.421  0.00  0.00    -0.340 N 
ATOM     19  H3  UNL     1       9.005  20.174  19.218  0.00  0.00    +0.146 HD
BRANCH  18  20
ATOM     20  C5  UNL     1       7.446  19.593  20.615  0.00  0.00    +0.143 C 
BRANCH  20  26
ATOM     21  O1  UNL     1       9.616  18.021  22.200  0.00  0.00    -0.268 OA
ATOM     22  C1  UNL     1       8.422  17.632  22.109  0.00  0.00    +0.266 C 
ATOM     23  N1  UNL     1       7.919  16.456  22.736  0.00  0.00    -0.176 NA
ATOM     24  C2  UNL     1       6.669  16.450  22.395  0.00  0.00    +0.066 A 
ATOM     25  C3  UNL     1       6.302  17.527  21.591  0.00  0.00    +0.024 A 
ATOM     26  C4  UNL     1       7.361  18.298  21.369  0.00  0.00    +0.043 C 
ATOM     27  C17 UNL     1       4.974  17.647  21.175  0.00  0.00    +0.048 A 
ATOM     28  S2  UNL     1       4.212  18.809  20.230  0.00  0.00    -0.075 S 
ATOM     29  C18 UNL     1       2.708  18.042  20.345  0.00  0.00    +0.157 A 
ATOM     30  N5  UNL     1       2.773  16.913  21.093  0.00  0.00    -0.247 NA
ATOM     31  C19 UNL     1       4.032  16.694  21.554  0.00  0.00    +0.079 A 
ATOM     32  C20 UNL     1       4.398  15.601  22.359  0.00  0.00    +0.031 A 
ATOM     33  C21 UNL     1       5.736  15.476  22.788  0.00  0.00    +0.028 A 
ENDBRANCH  20  26
ENDBRANCH  18  20
ENDBRANCH   1  18
TORSDOF 6
ENDMDL
