MODEL 1
REMARK minimizedAffinity -7.58025503
REMARK minimizedRMSD -1
REMARK  Name = /home/tchapet/Post-Doc/ARTICLES-DOSSIERS-DES-ARTICLES-EN-REDACTION/NOUVELS-AXES-DE-RECHERCHE-A-REGARDER-URGEMMENT/ARTICLES-EN-REDACTIONS/ARTICLE_MVOTO/Paper2_JCIM/docking_rerun/ligands/17574.pdb
REMARK  8 active torsions:
REMARK  status: ('A' for Active; 'I' for Inactive)
REMARK    1  A    between atoms: C1_1  and  C2_2
REMARK    2  A    between atoms: N1_4  and  C3_5
REMARK    3  A    between atoms: N1_4  and  C23_33
REMARK    4  A    between atoms: C6_8  and  N2_11
REMARK    5  A    between atoms: N2_11  and  C9_12
REMARK    6  A    between atoms: C11_14  and  S1_29
REMARK    7  A    between atoms: C12_15  and  N3_28
REMARK    8  A    between atoms: S1_29  and  O6_32
REMARK                            x       y       z     vdW  Elec       q    Type
REMARK                         _______ _______ _______ _____ _____    ______ ____
ROOT
ATOM      1  C9  UNL     1     -14.068  20.565  43.814  0.00  0.00    +0.045 A 
ATOM      2  C10 UNL     1     -13.427  21.054  44.951  0.00  0.00    +0.055 A 
ATOM      3  C11 UNL     1     -13.835  22.242  45.555  0.00  0.00    +0.140 A 
ATOM      4  C12 UNL     1     -14.885  22.995  44.985  0.00  0.00    +0.064 A 
ATOM      5  C13 UNL     1     -15.518  22.534  43.795  0.00  0.00    +0.057 A 
ATOM      6  C14 UNL     1     -15.167  21.268  43.261  0.00  0.00    +0.056 A 
ATOM      7  C15 UNL     1     -15.987  20.688  42.157  0.00  0.00    +0.196 C 
ATOM      8  O2  UNL     1     -15.840  19.482  41.818  0.00  0.00    -0.287 OA
ATOM      9  C16 UNL     1     -17.031  21.498  41.494  0.00  0.00    +0.033 A 
ATOM     10  C17 UNL     1     -17.778  20.968  40.425  0.00  0.00    +0.012 A 
ATOM     11  C18 UNL     1     -18.763  21.735  39.801  0.00  0.00    +0.001 A 
ATOM     12  C19 UNL     1     -19.013  23.037  40.234  0.00  0.00    +0.001 A 
ATOM     13  C20 UNL     1     -18.278  23.575  41.293  0.00  0.00    +0.012 A 
ATOM     14  C21 UNL     1     -17.283  22.810  41.932  0.00  0.00    +0.033 A 
ATOM     15  C22 UNL     1     -16.496  23.380  43.047  0.00  0.00    +0.196 C 
ATOM     16  O3  UNL     1     -16.607  24.610  43.303  0.00  0.00    -0.287 OA
ENDROOT
BRANCH   4  17
ATOM     17  N3  UNL     1     -15.348  24.182  45.648  0.00  0.00    -0.356 N 
ATOM     18  H14 UNL     1     -14.705  24.783  46.206  0.00  0.00    +0.142 HD
ATOM     19  H15 UNL     1     -16.364  24.411  45.685  0.00  0.00    +0.142 HD
ENDBRANCH   4  17
BRANCH   3  20
ATOM     20  S1  UNL     1     -13.022  22.754  47.042  0.00  0.00    +0.111 S 
ATOM     21  O4  UNL     1     -12.897  24.252  47.053  0.00  0.00    -0.142 OA
ATOM     22  O5  UNL     1     -13.817  22.297  48.233  0.00  0.00    -0.142 OA
BRANCH  20  23
ATOM     23  O6  UNL     1     -11.484  22.075  47.128  0.00  0.00    -0.250 OA
ATOM     24  H16 UNL     1     -11.100  22.419  47.975  0.00  0.00    +0.245 HD
ENDBRANCH  20  23
ENDBRANCH   3  20
BRANCH   1  25
ATOM     25  N2  UNL     1     -13.561  19.358  43.224  0.00  0.00    -0.314 N 
ATOM     26  H8  UNL     1     -13.609  19.276  42.183  0.00  0.00    +0.152 HD
BRANCH  25  30
ATOM     27  C3  UNL     1     -12.549  15.894  45.490  0.00  0.00    +0.036 A 
ATOM     28  C4  UNL     1     -13.884  16.305  45.360  0.00  0.00    +0.025 A 
ATOM     29  C5  UNL     1     -14.205  17.445  44.619  0.00  0.00    +0.025 A 
ATOM     30  C6  UNL     1     -13.199  18.192  43.989  0.00  0.00    +0.031 A 
ATOM     31  C7  UNL     1     -11.859  17.783  44.124  0.00  0.00    +0.025 A 
ATOM     32  C8  UNL     1     -11.539  16.642  44.864  0.00  0.00    +0.025 A 
BRANCH  27  36
ATOM     33  C1  UNL     1     -11.402  12.276  46.314  0.00  0.00    +0.109 C 
ATOM     34  C2  UNL     1     -11.852  13.493  45.562  0.00  0.00    +0.216 C 
ATOM     35  O1  UNL     1     -11.914  13.433  44.303  0.00  0.00    -0.276 OA
ATOM     36  N1  UNL     1     -12.220  14.711  46.246  0.00  0.00    -0.275 N 
ATOM     37  C23 UNL     1     -12.390  14.724  47.703  0.00  0.00    +0.138 C 
ENDBRANCH  27  36
ENDBRANCH  25  30
ENDBRANCH   1  25
TORSDOF 6
ENDMDL
MODEL 2
REMARK minimizedAffinity -7.53467607
REMARK minimizedRMSD -1
REMARK  Name = /home/tchapet/Post-Doc/ARTICLES-DOSSIERS-DES-ARTICLES-EN-REDACTION/NOUVELS-AXES-DE-RECHERCHE-A-REGARDER-URGEMMENT/ARTICLES-EN-REDACTIONS/ARTICLE_MVOTO/Paper2_JCIM/docking_rerun/ligands/17574.pdb
REMARK  8 active torsions:
REMARK  status: ('A' for Active; 'I' for Inactive)
REMARK    1  A    between atoms: C1_1  and  C2_2
REMARK    2  A    between atoms: N1_4  and  C3_5
REMARK    3  A    between atoms: N1_4  and  C23_33
REMARK    4  A    between atoms: C6_8  and  N2_11
REMARK    5  A    between atoms: N2_11  and  C9_12
REMARK    6  A    between atoms: C11_14  and  S1_29
REMARK    7  A    between atoms: C12_15  and  N3_28
REMARK    8  A    between atoms: S1_29  and  O6_32
REMARK                            x       y       z     vdW  Elec       q    Type
REMARK                         _______ _______ _______ _____ _____    ______ ____
ROOT
ATOM      1  C9  UNL     1     -16.857  23.229  43.034  0.00  0.00    +0.045 A 
ATOM      2  C10 UNL     1     -16.902  22.505  41.844  0.00  0.00    +0.055 A 
ATOM      3  C11 UNL     1     -18.117  22.165  41.251  0.00  0.00    +0.140 A 
ATOM      4  C12 UNL     1     -19.329  22.515  41.885  0.00  0.00    +0.064 A 
ATOM      5  C13 UNL     1     -19.301  23.211  43.127  0.00  0.00    +0.057 A 
ATOM      6  C14 UNL     1     -18.059  23.648  43.656  0.00  0.00    +0.056 A 
ATOM      7  C15 UNL     1     -18.049  24.572  44.828  0.00  0.00    +0.196 C 
ATOM      8  O2  UNL     1     -16.984  25.150  45.176  0.00  0.00    -0.287 OA
ATOM      9  C16 UNL     1     -19.300  24.876  45.553  0.00  0.00    +0.033 A 
ATOM     10  C17 UNL     1     -19.288  25.714  46.685  0.00  0.00    +0.012 A 
ATOM     11  C18 UNL     1     -20.472  25.999  47.367  0.00  0.00    +0.001 A 
ATOM     12  C19 UNL     1     -21.678  25.453  46.931  0.00  0.00    +0.001 A 
ATOM     13  C20 UNL     1     -21.705  24.620  45.811  0.00  0.00    +0.012 A 
ATOM     14  C21 UNL     1     -20.517  24.326  45.112  0.00  0.00    +0.033 A 
ATOM     15  C22 UNL     1     -20.539  23.435  43.932  0.00  0.00    +0.196 C 
ATOM     16  O3  UNL     1     -21.600  22.809  43.663  0.00  0.00    -0.287 OA
ENDROOT
BRANCH   4  17
ATOM     17  N3  UNL     1     -20.578  22.223  41.238  0.00  0.00    -0.356 N 
ATOM     18  H14 UNL     1     -20.695  21.389  40.623  0.00  0.00    +0.142 HD
ATOM     19  H15 UNL     1     -21.369  22.901  41.274  0.00  0.00    +0.142 HD
ENDBRANCH   4  17
BRANCH   3  20
ATOM     20  S1  UNL     1     -18.088  21.314  39.699  0.00  0.00    +0.111 S 
ATOM     21  O4  UNL     1     -16.663  21.054  39.298  0.00  0.00    -0.142 OA
ATOM     22  O5  UNL     1     -18.832  20.014  39.824  0.00  0.00    -0.142 OA
BRANCH  20  23
ATOM     23  O6  UNL     1     -18.830  22.247  38.510  0.00  0.00    -0.250 OA
ATOM     24  H16 UNL     1     -18.760  21.708  37.682  0.00  0.00    +0.245 HD
ENDBRANCH  20  23
ENDBRANCH   3  20
BRANCH   1  25
ATOM     25  N2  UNL     1     -15.568  23.503  43.606  0.00  0.00    -0.314 N 
ATOM     26  H8  UNL     1     -15.044  24.327  43.234  0.00  0.00    +0.152 HD
BRANCH  25  30
ATOM     27  C3  UNL     1     -13.598  20.795  46.240  0.00  0.00    +0.036 A 
ATOM     28  C4  UNL     1     -14.989  20.965  46.291  0.00  0.00    +0.025 A 
ATOM     29  C5  UNL     1     -15.625  21.859  45.426  0.00  0.00    +0.025 A 
ATOM     30  C6  UNL     1     -14.884  22.595  44.491  0.00  0.00    +0.031 A 
ATOM     31  C7  UNL     1     -13.487  22.428  44.443  0.00  0.00    +0.025 A 
ATOM     32  C8  UNL     1     -12.851  21.533  45.308  0.00  0.00    +0.025 A 
BRANCH  27  36
ATOM     33  C1  UNL     1     -11.925  19.329  49.424  0.00  0.00    +0.109 C 
ATOM     34  C2  UNL     1     -12.513  20.293  48.437  0.00  0.00    +0.216 C 
ATOM     35  O1  UNL     1     -12.616  21.506  48.770  0.00  0.00    -0.276 OA
ATOM     36  N1  UNL     1     -12.944  19.864  47.126  0.00  0.00    -0.275 N 
ATOM     37  C23 UNL     1     -12.609  18.523  46.635  0.00  0.00    +0.138 C 
ENDBRANCH  27  36
ENDBRANCH  25  30
ENDBRANCH   1  25
TORSDOF 6
ENDMDL
MODEL 3
REMARK minimizedAffinity -7.38212442
REMARK minimizedRMSD -1
REMARK  Name = /home/tchapet/Post-Doc/ARTICLES-DOSSIERS-DES-ARTICLES-EN-REDACTION/NOUVELS-AXES-DE-RECHERCHE-A-REGARDER-URGEMMENT/ARTICLES-EN-REDACTIONS/ARTICLE_MVOTO/Paper2_JCIM/docking_rerun/ligands/17574.pdb
REMARK  8 active torsions:
REMARK  status: ('A' for Active; 'I' for Inactive)
REMARK    1  A    between atoms: C1_1  and  C2_2
REMARK    2  A    between atoms: N1_4  and  C3_5
REMARK    3  A    between atoms: N1_4  and  C23_33
REMARK    4  A    between atoms: C6_8  and  N2_11
REMARK    5  A    between atoms: N2_11  and  C9_12
REMARK    6  A    between atoms: C11_14  and  S1_29
REMARK    7  A    between atoms: C12_15  and  N3_28
REMARK    8  A    between atoms: S1_29  and  O6_32
REMARK                            x       y       z     vdW  Elec       q    Type
REMARK                         _______ _______ _______ _____ _____    ______ ____
ROOT
ATOM      1  C9  UNL     1     -16.823  22.757  43.148  0.00  0.00    +0.045 A 
ATOM      2  C10 UNL     1     -16.904  22.128  41.907  0.00  0.00    +0.055 A 
ATOM      3  C11 UNL     1     -18.124  21.979  41.251  0.00  0.00    +0.140 A 
ATOM      4  C12 UNL     1     -19.313  22.428  41.868  0.00  0.00    +0.064 A 
ATOM      5  C13 UNL     1     -19.254  23.029  43.158  0.00  0.00    +0.057 A 
ATOM      6  C14 UNL     1     -17.992  23.275  43.758  0.00  0.00    +0.056 A 
ATOM      7  C15 UNL     1     -17.922  24.108  44.994  0.00  0.00    +0.196 C 
ATOM      8  O2  UNL     1     -16.812  24.528  45.420  0.00  0.00    -0.287 OA
ATOM      9  C16 UNL     1     -19.158  24.511  45.698  0.00  0.00    +0.033 A 
ATOM     10  C17 UNL     1     -19.094  25.261  46.888  0.00  0.00    +0.012 A 
ATOM     11  C18 UNL     1     -20.264  25.640  47.549  0.00  0.00    +0.001 A 
ATOM     12  C19 UNL     1     -21.507  25.275  47.034  0.00  0.00    +0.001 A 
ATOM     13  C20 UNL     1     -21.585  24.529  45.856  0.00  0.00    +0.012 A 
ATOM     14  C21 UNL     1     -20.412  24.143  45.178  0.00  0.00    +0.033 A 
ATOM     15  C22 UNL     1     -20.490  23.345  43.934  0.00  0.00    +0.196 C 
ATOM     16  O3  UNL     1     -21.605  22.871  43.585  0.00  0.00    -0.287 OA
ENDROOT
BRANCH   4  17
ATOM     17  N3  UNL     1     -20.558  22.335  41.160  0.00  0.00    -0.356 N 
ATOM     18  H14 UNL     1     -20.747  21.566  40.481  0.00  0.00    +0.142 HD
ATOM     19  H15 UNL     1     -21.265  23.100  41.219  0.00  0.00    +0.142 HD
ENDBRANCH   4  17
BRANCH   3  20
ATOM     20  S1  UNL     1     -18.132  21.240  39.641  0.00  0.00    +0.111 S 
ATOM     21  O4  UNL     1     -16.716  20.999  39.196  0.00  0.00    -0.142 OA
ATOM     22  O5  UNL     1     -18.882  19.939  39.689  0.00  0.00    -0.142 OA
BRANCH  20  23
ATOM     23  O6  UNL     1     -18.888  22.259  38.537  0.00  0.00    -0.250 OA
ATOM     24  H16 UNL     1     -18.838  21.779  37.671  0.00  0.00    +0.245 HD
ENDBRANCH  20  23
ENDBRANCH   3  20
BRANCH   1  25
ATOM     25  N2  UNL     1     -15.536  22.833  43.780  0.00  0.00    -0.314 N 
ATOM     26  H8  UNL     1     -15.111  23.781  43.889  0.00  0.00    +0.152 HD
BRANCH  25  30
ATOM     27  C3  UNL     1     -13.187  19.381  44.629  0.00  0.00    +0.036 A 
ATOM     28  C4  UNL     1     -14.584  19.297  44.542  0.00  0.00    +0.025 A 
ATOM     29  C5  UNL     1     -15.346  20.436  44.268  0.00  0.00    +0.025 A 
ATOM     30  C6  UNL     1     -14.725  21.678  44.070  0.00  0.00    +0.031 A 
ATOM     31  C7  UNL     1     -13.323  21.763  44.163  0.00  0.00    +0.025 A 
ATOM     32  C8  UNL     1     -12.562  20.624  44.436  0.00  0.00    +0.025 A 
BRANCH  27  36
ATOM     33  C1  UNL     1     -10.962  16.250  44.053  0.00  0.00    +0.109 C 
ATOM     34  C2  UNL     1     -11.870  17.420  43.810  0.00  0.00    +0.216 C 
ATOM     35  O1  UNL     1     -12.174  17.707  42.619  0.00  0.00    -0.276 OA
ATOM     36  N1  UNL     1     -12.401  18.203  44.901  0.00  0.00    -0.275 N 
ATOM     37  C23 UNL     1     -12.260  17.742  46.286  0.00  0.00    +0.138 C 
ENDBRANCH  27  36
ENDBRANCH  25  30
ENDBRANCH   1  25
TORSDOF 6
ENDMDL
MODEL 4
REMARK minimizedAffinity -7.32617521
REMARK minimizedRMSD -1
REMARK  Name = /home/tchapet/Post-Doc/ARTICLES-DOSSIERS-DES-ARTICLES-EN-REDACTION/NOUVELS-AXES-DE-RECHERCHE-A-REGARDER-URGEMMENT/ARTICLES-EN-REDACTIONS/ARTICLE_MVOTO/Paper2_JCIM/docking_rerun/ligands/17574.pdb
REMARK  8 active torsions:
REMARK  status: ('A' for Active; 'I' for Inactive)
REMARK    1  A    between atoms: C1_1  and  C2_2
REMARK    2  A    between atoms: N1_4  and  C3_5
REMARK    3  A    between atoms: N1_4  and  C23_33
REMARK    4  A    between atoms: C6_8  and  N2_11
REMARK    5  A    between atoms: N2_11  and  C9_12
REMARK    6  A    between atoms: C11_14  and  S1_29
REMARK    7  A    between atoms: C12_15  and  N3_28
REMARK    8  A    between atoms: S1_29  and  O6_32
REMARK                            x       y       z     vdW  Elec       q    Type
REMARK                         _______ _______ _______ _____ _____    ______ ____
ROOT
ATOM      1  C9  UNL     1      -5.904   3.361  27.596  0.00  0.00    +0.045 A 
ATOM      2  C10 UNL     1      -5.334   3.650  28.834  0.00  0.00    +0.055 A 
ATOM      3  C11 UNL     1      -4.003   4.050  28.941  0.00  0.00    +0.140 A 
ATOM      4  C12 UNL     1      -3.196   4.120  27.783  0.00  0.00    +0.064 A 
ATOM      5  C13 UNL     1      -3.750   3.780  26.516  0.00  0.00    +0.057 A 
ATOM      6  C14 UNL     1      -5.134   3.488  26.413  0.00  0.00    +0.056 A 
ATOM      7  C15 UNL     1      -5.755   3.361  25.062  0.00  0.00    +0.196 C 
ATOM      8  O2  UNL     1      -7.010   3.325  24.936  0.00  0.00    -0.287 OA
ATOM      9  C16 UNL     1      -4.912   3.345  23.848  0.00  0.00    +0.033 A 
ATOM     10  C17 UNL     1      -5.491   3.183  22.575  0.00  0.00    +0.012 A 
ATOM     11  C18 UNL     1      -4.692   3.170  21.431  0.00  0.00    +0.001 A 
ATOM     12  C19 UNL     1      -3.310   3.315  21.543  0.00  0.00    +0.001 A 
ATOM     13  C20 UNL     1      -2.722   3.475  22.799  0.00  0.00    +0.012 A 
ATOM     14  C21 UNL     1      -3.518   3.493  23.961  0.00  0.00    +0.033 A 
ATOM     15  C22 UNL     1      -2.899   3.652  25.296  0.00  0.00    +0.196 C 
ATOM     16  O3  UNL     1      -1.643   3.599  25.392  0.00  0.00    -0.287 OA
ENDROOT
BRANCH   4  17
ATOM     17  N3  UNL     1      -1.846   4.597  27.888  0.00  0.00    -0.356 N 
ATOM     18  H14 UNL     1      -1.273   4.438  28.744  0.00  0.00    +0.142 HD
ATOM     19  H15 UNL     1      -1.441   5.218  27.155  0.00  0.00    +0.142 HD
ENDBRANCH   4  17
BRANCH   3  20
ATOM     20  S1  UNL     1      -3.376   4.476  30.541  0.00  0.00    +0.111 S 
ATOM     21  O4  UNL     1      -4.397   4.125  31.587  0.00  0.00    -0.142 OA
ATOM     22  O5  UNL     1      -2.100   3.726  30.798  0.00  0.00    -0.142 OA
BRANCH  20  23
ATOM     23  O6  UNL     1      -3.056   6.126  30.620  0.00  0.00    -0.250 OA
ATOM     24  H16 UNL     1      -2.724   6.279  31.542  0.00  0.00    +0.245 HD
ENDBRANCH  20  23
ENDBRANCH   3  20
BRANCH   1  25
ATOM     25  N2  UNL     1      -7.268   2.913  27.573  0.00  0.00    -0.314 N 
ATOM     26  H8  UNL     1      -7.498   2.107  26.949  0.00  0.00    +0.152 HD
BRANCH  25  30
ATOM     27  C3  UNL     1     -10.453   5.045  29.436  0.00  0.00    +0.036 A 
ATOM     28  C4  UNL     1      -9.635   4.180  30.177  0.00  0.00    +0.025 A 
ATOM     29  C5  UNL     1      -8.596   3.482  29.556  0.00  0.00    +0.025 A 
ATOM     30  C6  UNL     1      -8.352   3.640  28.184  0.00  0.00    +0.031 A 
ATOM     31  C7  UNL     1      -9.177   4.504  27.439  0.00  0.00    +0.025 A 
ATOM     32  C8  UNL     1     -10.214   5.203  28.061  0.00  0.00    +0.025 A 
BRANCH  27  36
ATOM     33  C1  UNL     1     -12.339   7.867  31.323  0.00  0.00    +0.109 C 
ATOM     34  C2  UNL     1     -11.241   7.032  30.735  0.00  0.00    +0.216 C 
ATOM     35  O1  UNL     1     -10.053   7.447  30.830  0.00  0.00    -0.276 OA
ATOM     36  N1  UNL     1     -11.517   5.773  30.081  0.00  0.00    -0.275 N 
ATOM     37  C23 UNL     1     -12.847   5.162  30.175  0.00  0.00    +0.138 C 
ENDBRANCH  27  36
ENDBRANCH  25  30
ENDBRANCH   1  25
TORSDOF 6
ENDMDL
MODEL 5
REMARK minimizedAffinity -7.27229643
REMARK minimizedRMSD -1
REMARK  Name = /home/tchapet/Post-Doc/ARTICLES-DOSSIERS-DES-ARTICLES-EN-REDACTION/NOUVELS-AXES-DE-RECHERCHE-A-REGARDER-URGEMMENT/ARTICLES-EN-REDACTIONS/ARTICLE_MVOTO/Paper2_JCIM/docking_rerun/ligands/17574.pdb
REMARK  8 active torsions:
REMARK  status: ('A' for Active; 'I' for Inactive)
REMARK    1  A    between atoms: C1_1  and  C2_2
REMARK    2  A    between atoms: N1_4  and  C3_5
REMARK    3  A    between atoms: N1_4  and  C23_33
REMARK    4  A    between atoms: C6_8  and  N2_11
REMARK    5  A    between atoms: N2_11  and  C9_12
REMARK    6  A    between atoms: C11_14  and  S1_29
REMARK    7  A    between atoms: C12_15  and  N3_28
REMARK    8  A    between atoms: S1_29  and  O6_32
REMARK                            x       y       z     vdW  Elec       q    Type
REMARK                         _______ _______ _______ _____ _____    ______ ____
ROOT
ATOM      1  C9  UNL     1      -9.856  22.741  11.215  0.00  0.00    +0.045 A 
ATOM      2  C10 UNL     1      -9.518  21.391  11.283  0.00  0.00    +0.055 A 
ATOM      3  C11 UNL     1      -9.210  20.783  12.499  0.00  0.00    +0.140 A 
ATOM      4  C12 UNL     1      -9.193  21.552  13.683  0.00  0.00    +0.064 A 
ATOM      5  C13 UNL     1      -9.489  22.944  13.625  0.00  0.00    +0.057 A 
ATOM      6  C14 UNL     1      -9.910  23.518  12.399  0.00  0.00    +0.056 A 
ATOM      7  C15 UNL     1     -10.439  24.914  12.390  0.00  0.00    +0.196 C 
ATOM      8  O2  UNL     1     -11.024  25.369  11.369  0.00  0.00    -0.287 OA
ATOM      9  C16 UNL     1     -10.347  25.758  13.600  0.00  0.00    +0.033 A 
ATOM     10  C17 UNL     1     -10.806  27.089  13.582  0.00  0.00    +0.012 A 
ATOM     11  C18 UNL     1     -10.718  27.883  14.727  0.00  0.00    +0.001 A 
ATOM     12  C19 UNL     1     -10.170  27.361  15.898  0.00  0.00    +0.001 A 
ATOM     13  C20 UNL     1      -9.709  26.043  15.929  0.00  0.00    +0.012 A 
ATOM     14  C21 UNL     1      -9.795  25.231  14.781  0.00  0.00    +0.033 A 
ATOM     15  C22 UNL     1      -9.299  23.838  14.806  0.00  0.00    +0.196 C 
ATOM     16  O3  UNL     1      -8.645  23.444  15.810  0.00  0.00    -0.287 OA
ENDROOT
BRANCH   4  17
ATOM     17  N3  UNL     1      -8.943  20.909  14.943  0.00  0.00    -0.356 N 
ATOM     18  H14 UNL     1      -8.321  20.076  15.019  0.00  0.00    +0.142 HD
ATOM     19  H15 UNL     1      -9.469  21.188  15.799  0.00  0.00    +0.142 HD
ENDBRANCH   4  17
BRANCH   3  20
ATOM     20  S1  UNL     1      -8.868  19.045  12.511  0.00  0.00    +0.111 S 
ATOM     21  O4  UNL     1      -9.040  18.493  11.123  0.00  0.00    -0.142 OA
ATOM     22  O5  UNL     1      -7.461  18.813  12.985  0.00  0.00    -0.142 OA
BRANCH  20  23
ATOM     23  O6  UNL     1      -9.925  18.251  13.551  0.00  0.00    -0.250 OA
ATOM     24  H16 UNL     1      -9.675  17.294  13.489  0.00  0.00    +0.245 HD
ENDBRANCH  20  23
ENDBRANCH   3  20
BRANCH   1  25
ATOM     25  N2  UNL     1     -10.117  23.304   9.921  0.00  0.00    -0.314 N 
ATOM     26  H8  UNL     1      -9.399  23.953   9.527  0.00  0.00    +0.152 HD
BRANCH  25  30
ATOM     27  C3  UNL     1     -13.844  22.991   7.879  0.00  0.00    +0.036 A 
ATOM     28  C4  UNL     1     -12.707  23.492   7.228  0.00  0.00    +0.025 A 
ATOM     29  C5  UNL     1     -11.490  23.595   7.908  0.00  0.00    +0.025 A 
ATOM     30  C6  UNL     1     -11.387  23.194   9.249  0.00  0.00    +0.031 A 
ATOM     31  C7  UNL     1     -12.530  22.697   9.903  0.00  0.00    +0.025 A 
ATOM     32  C8  UNL     1     -13.745  22.593   9.222  0.00  0.00    +0.025 A 
BRANCH  27  36
ATOM     33  C1  UNL     1     -17.229  23.965   6.243  0.00  0.00    +0.109 C 
ATOM     34  C2  UNL     1     -15.970  24.019   7.057  0.00  0.00    +0.216 C 
ATOM     35  O1  UNL     1     -15.688  25.093   7.658  0.00  0.00    -0.276 OA
ATOM     36  N1  UNL     1     -15.096  22.875   7.173  0.00  0.00    -0.275 N 
ATOM     37  C23 UNL     1     -15.526  21.558   6.691  0.00  0.00    +0.138 C 
ENDBRANCH  27  36
ENDBRANCH  25  30
ENDBRANCH   1  25
TORSDOF 6
ENDMDL
MODEL 6
REMARK minimizedAffinity -7.26271534
REMARK minimizedRMSD -1
REMARK  Name = /home/tchapet/Post-Doc/ARTICLES-DOSSIERS-DES-ARTICLES-EN-REDACTION/NOUVELS-AXES-DE-RECHERCHE-A-REGARDER-URGEMMENT/ARTICLES-EN-REDACTIONS/ARTICLE_MVOTO/Paper2_JCIM/docking_rerun/ligands/17574.pdb
REMARK  8 active torsions:
REMARK  status: ('A' for Active; 'I' for Inactive)
REMARK    1  A    between atoms: C1_1  and  C2_2
REMARK    2  A    between atoms: N1_4  and  C3_5
REMARK    3  A    between atoms: N1_4  and  C23_33
REMARK    4  A    between atoms: C6_8  and  N2_11
REMARK    5  A    between atoms: N2_11  and  C9_12
REMARK    6  A    between atoms: C11_14  and  S1_29
REMARK    7  A    between atoms: C12_15  and  N3_28
REMARK    8  A    between atoms: S1_29  and  O6_32
REMARK                            x       y       z     vdW  Elec       q    Type
REMARK                         _______ _______ _______ _____ _____    ______ ____
ROOT
ATOM      1  C9  UNL     1     -15.371  23.941  44.207  0.00  0.00    +0.045 A 
ATOM      2  C10 UNL     1     -14.539  22.941  44.709  0.00  0.00    +0.055 A 
ATOM      3  C11 UNL     1     -13.966  23.047  45.975  0.00  0.00    +0.140 A 
ATOM      4  C12 UNL     1     -14.188  24.206  46.752  0.00  0.00    +0.064 A 
ATOM      5  C13 UNL     1     -14.995  25.258  46.233  0.00  0.00    +0.057 A 
ATOM      6  C14 UNL     1     -15.662  25.083  44.994  0.00  0.00    +0.056 A 
ATOM      7  C15 UNL     1     -16.684  26.083  44.567  0.00  0.00    +0.196 C 
ATOM      8  O2  UNL     1     -17.446  25.841  43.591  0.00  0.00    -0.287 OA
ATOM      9  C16 UNL     1     -16.864  27.341  45.322  0.00  0.00    +0.033 A 
ATOM     10  C17 UNL     1     -17.797  28.305  44.898  0.00  0.00    +0.012 A 
ATOM     11  C18 UNL     1     -17.965  29.491  45.615  0.00  0.00    +0.001 A 
ATOM     12  C19 UNL     1     -17.205  29.729  46.759  0.00  0.00    +0.001 A 
ATOM     13  C20 UNL     1     -16.274  28.781  47.190  0.00  0.00    +0.012 A 
ATOM     14  C21 UNL     1     -16.098  27.580  46.477  0.00  0.00    +0.033 A 
ATOM     15  C22 UNL     1     -15.106  26.578  46.925  0.00  0.00    +0.196 C 
ATOM     16  O3  UNL     1     -14.304  26.887  47.848  0.00  0.00    -0.287 OA
ENDROOT
BRANCH   4  17
ATOM     17  N3  UNL     1     -13.652  24.282  48.082  0.00  0.00    -0.356 N 
ATOM     18  H14 UNL     1     -12.756  23.814  48.339  0.00  0.00    +0.142 HD
ATOM     19  H15 UNL     1     -14.204  24.709  48.857  0.00  0.00    +0.142 HD
ENDBRANCH   4  17
BRANCH   3  20
ATOM     20  S1  UNL     1     -12.986  21.699  46.572  0.00  0.00    +0.111 S 
ATOM     21  O4  UNL     1     -13.720  21.001  47.683  0.00  0.00    -0.142 OA
ATOM     22  O5  UNL     1     -12.719  20.735  45.450  0.00  0.00    -0.142 OA
BRANCH  20  23
ATOM     23  O6  UNL     1     -11.514  22.264  47.159  0.00  0.00    -0.250 OA
ATOM     24  H16 UNL     1     -11.039  21.455  47.480  0.00  0.00    +0.245 HD
ENDBRANCH  20  23
ENDBRANCH   3  20
BRANCH   1  25
ATOM     25  N2  UNL     1     -15.888  23.780  42.878  0.00  0.00    -0.314 N 
ATOM     26  H8  UNL     1     -15.703  24.549  42.195  0.00  0.00    +0.152 HD
BRANCH  25  30
ATOM     27  C3  UNL     1     -18.644  20.737  41.736  0.00  0.00    +0.036 A 
ATOM     28  C4  UNL     1     -18.771  22.044  41.244  0.00  0.00    +0.025 A 
ATOM     29  C5  UNL     1     -17.865  23.036  41.628  0.00  0.00    +0.025 A 
ATOM     30  C6  UNL     1     -16.812  22.738  42.506  0.00  0.00    +0.031 A 
ATOM     31  C7  UNL     1     -16.688  21.427  43.004  0.00  0.00    +0.025 A 
ATOM     32  C8  UNL     1     -17.594  20.436  42.618  0.00  0.00    +0.025 A 
BRANCH  27  36
ATOM     33  C1  UNL     1     -20.162  17.725  39.810  0.00  0.00    +0.109 C 
ATOM     34  C2  UNL     1     -19.271  18.868  40.197  0.00  0.00    +0.216 C 
ATOM     35  O1  UNL     1     -18.242  19.091  39.500  0.00  0.00    -0.276 OA
ATOM     36  N1  UNL     1     -19.573  19.712  41.330  0.00  0.00    -0.275 N 
ATOM     37  C23 UNL     1     -20.877  19.624  41.996  0.00  0.00    +0.138 C 
ENDBRANCH  27  36
ENDBRANCH  25  30
ENDBRANCH   1  25
TORSDOF 6
ENDMDL
MODEL 7
REMARK minimizedAffinity -7.2362895
REMARK minimizedRMSD -1
REMARK  Name = /home/tchapet/Post-Doc/ARTICLES-DOSSIERS-DES-ARTICLES-EN-REDACTION/NOUVELS-AXES-DE-RECHERCHE-A-REGARDER-URGEMMENT/ARTICLES-EN-REDACTIONS/ARTICLE_MVOTO/Paper2_JCIM/docking_rerun/ligands/17574.pdb
REMARK  8 active torsions:
REMARK  status: ('A' for Active; 'I' for Inactive)
REMARK    1  A    between atoms: C1_1  and  C2_2
REMARK    2  A    between atoms: N1_4  and  C3_5
REMARK    3  A    between atoms: N1_4  and  C23_33
REMARK    4  A    between atoms: C6_8  and  N2_11
REMARK    5  A    between atoms: N2_11  and  C9_12
REMARK    6  A    between atoms: C11_14  and  S1_29
REMARK    7  A    between atoms: C12_15  and  N3_28
REMARK    8  A    between atoms: S1_29  and  O6_32
REMARK                            x       y       z     vdW  Elec       q    Type
REMARK                         _______ _______ _______ _____ _____    ______ ____
ROOT
ATOM      1  C9  UNL     1     -13.934   7.588  33.203  0.00  0.00    +0.045 A 
ATOM      2  C10 UNL     1     -13.220   8.456  34.026  0.00  0.00    +0.055 A 
ATOM      3  C11 UNL     1     -13.714   9.720  34.344  0.00  0.00    +0.140 A 
ATOM      4  C12 UNL     1     -14.937  10.156  33.788  0.00  0.00    +0.064 A 
ATOM      5  C13 UNL     1     -15.655   9.300  32.905  0.00  0.00    +0.057 A 
ATOM      6  C14 UNL     1     -15.195   7.976  32.685  0.00  0.00    +0.056 A 
ATOM      7  C15 UNL     1     -16.066   7.012  31.951  0.00  0.00    +0.196 C 
ATOM      8  O2  UNL     1     -15.787   5.783  31.935  0.00  0.00    -0.287 OA
ATOM      9  C16 UNL     1     -17.305   7.475  31.290  0.00  0.00    +0.033 A 
ATOM     10  C17 UNL     1     -18.107   6.577  30.561  0.00  0.00    +0.012 A 
ATOM     11  C18 UNL     1     -19.276   7.017  29.939  0.00  0.00    +0.001 A 
ATOM     12  C19 UNL     1     -19.658   8.355  30.035  0.00  0.00    +0.001 A 
ATOM     13  C20 UNL     1     -18.870   9.257  30.754  0.00  0.00    +0.012 A 
ATOM     14  C21 UNL     1     -17.690   8.824  31.389  0.00  0.00    +0.033 A 
ATOM     15  C22 UNL     1     -16.847   9.779  32.143  0.00  0.00    +0.196 C 
ATOM     16  O3  UNL     1     -17.107  11.010  32.067  0.00  0.00    -0.287 OA
ENDROOT
BRANCH   4  17
ATOM     17  N3  UNL     1     -15.476  11.431  34.171  0.00  0.00    -0.356 N 
ATOM     18  H14 UNL     1     -14.860  12.235  34.417  0.00  0.00    +0.142 HD
ATOM     19  H15 UNL     1     -16.500  11.553  34.326  0.00  0.00    +0.142 HD
ENDBRANCH   4  17
BRANCH   3  20
ATOM     20  S1  UNL     1     -12.785  10.732  35.461  0.00  0.00    +0.111 S 
ATOM     21  O4  UNL     1     -13.727  11.442  36.393  0.00  0.00    -0.142 OA
ATOM     22  O5  UNL     1     -11.836   9.873  36.247  0.00  0.00    -0.142 OA
BRANCH  20  23
ATOM     23  O6  UNL     1     -11.894  11.876  34.606  0.00  0.00    -0.250 OA
ATOM     24  H16 UNL     1     -11.419  12.401  35.300  0.00  0.00    +0.245 HD
ENDBRANCH  20  23
ENDBRANCH   3  20
BRANCH   1  25
ATOM     25  N2  UNL     1     -13.339   6.320  32.886  0.00  0.00    -0.314 N 
ATOM     26  H8  UNL     1     -13.261   5.620  33.658  0.00  0.00    +0.152 HD
BRANCH  25  30
ATOM     27  C3  UNL     1     -11.364   5.460  29.210  0.00  0.00    +0.036 A 
ATOM     28  C4  UNL     1     -11.932   4.434  29.978  0.00  0.00    +0.025 A 
ATOM     29  C5  UNL     1     -12.574   4.726  31.185  0.00  0.00    +0.025 A 
ATOM     30  C6  UNL     1     -12.664   6.049  31.642  0.00  0.00    +0.031 A 
ATOM     31  C7  UNL     1     -12.088   7.078  30.874  0.00  0.00    +0.025 A 
ATOM     32  C8  UNL     1     -11.448   6.786  29.667  0.00  0.00    +0.025 A 
BRANCH  27  36
ATOM     33  C1  UNL     1     -10.749   5.115  25.390  0.00  0.00    +0.109 C 
ATOM     34  C2  UNL     1     -11.426   5.317  26.714  0.00  0.00    +0.216 C 
ATOM     35  O1  UNL     1     -12.650   5.623  26.722  0.00  0.00    -0.276 OA
ATOM     36  N1  UNL     1     -10.711   5.159  27.959  0.00  0.00    -0.275 N 
ATOM     37  C23 UNL     1      -9.368   4.571  27.977  0.00  0.00    +0.138 C 
ENDBRANCH  27  36
ENDBRANCH  25  30
ENDBRANCH   1  25
TORSDOF 6
ENDMDL
MODEL 8
REMARK minimizedAffinity -7.20347595
REMARK minimizedRMSD -1
REMARK  Name = /home/tchapet/Post-Doc/ARTICLES-DOSSIERS-DES-ARTICLES-EN-REDACTION/NOUVELS-AXES-DE-RECHERCHE-A-REGARDER-URGEMMENT/ARTICLES-EN-REDACTIONS/ARTICLE_MVOTO/Paper2_JCIM/docking_rerun/ligands/17574.pdb
REMARK  8 active torsions:
REMARK  status: ('A' for Active; 'I' for Inactive)
REMARK    1  A    between atoms: C1_1  and  C2_2
REMARK    2  A    between atoms: N1_4  and  C3_5
REMARK    3  A    between atoms: N1_4  and  C23_33
REMARK    4  A    between atoms: C6_8  and  N2_11
REMARK    5  A    between atoms: N2_11  and  C9_12
REMARK    6  A    between atoms: C11_14  and  S1_29
REMARK    7  A    between atoms: C12_15  and  N3_28
REMARK    8  A    between atoms: S1_29  and  O6_32
REMARK                            x       y       z     vdW  Elec       q    Type
REMARK                         _______ _______ _______ _____ _____    ______ ____
ROOT
ATOM      1  C9  UNL     1     -27.327  20.975  33.145  0.00  0.00    +0.045 A 
ATOM      2  C10 UNL     1     -26.620  21.794  34.023  0.00  0.00    +0.055 A 
ATOM      3  C11 UNL     1     -26.251  23.090  33.664  0.00  0.00    +0.140 A 
ATOM      4  C12 UNL     1     -26.554  23.573  32.372  0.00  0.00    +0.064 A 
ATOM      5  C13 UNL     1     -27.233  22.731  31.445  0.00  0.00    +0.057 A 
ATOM      6  C14 UNL     1     -27.700  21.460  31.867  0.00  0.00    +0.056 A 
ATOM      7  C15 UNL     1     -28.607  20.682  30.973  0.00  0.00    +0.196 C 
ATOM      8  O2  UNL     1     -29.213  19.664  31.407  0.00  0.00    -0.287 OA
ATOM      9  C16 UNL     1     -28.862  21.132  29.589  0.00  0.00    +0.033 A 
ATOM     10  C17 UNL     1     -29.683  20.378  28.729  0.00  0.00    +0.012 A 
ATOM     11  C18 UNL     1     -29.923  20.807  27.422  0.00  0.00    +0.001 A 
ATOM     12  C19 UNL     1     -29.346  21.988  26.958  0.00  0.00    +0.001 A 
ATOM     13  C20 UNL     1     -28.528  22.745  27.800  0.00  0.00    +0.012 A 
ATOM     14  C21 UNL     1     -28.281  22.325  29.121  0.00  0.00    +0.033 A 
ATOM     15  C22 UNL     1     -27.407  23.118  30.013  0.00  0.00    +0.196 C 
ATOM     16  O3  UNL     1     -26.752  24.078  29.524  0.00  0.00    -0.287 OA
ENDROOT
BRANCH   4  17
ATOM     17  N3  UNL     1     -26.233  24.930  32.029  0.00  0.00    -0.356 N 
ATOM     18  H14 UNL     1     -25.405  25.417  32.435  0.00  0.00    +0.142 HD
ATOM     19  H15 UNL     1     -26.886  25.504  31.453  0.00  0.00    +0.142 HD
ENDBRANCH   4  17
BRANCH   3  20
ATOM     20  S1  UNL     1     -25.424  24.095  34.864  0.00  0.00    +0.111 S 
ATOM     21  O4  UNL     1     -25.909  25.513  34.748  0.00  0.00    -0.142 OA
ATOM     22  O5  UNL     1     -25.708  23.567  36.243  0.00  0.00    -0.142 OA
BRANCH  20  23
ATOM     23  O6  UNL     1     -23.761  24.061  34.606  0.00  0.00    -0.250 OA
ATOM     24  H16 UNL     1     -23.382  24.652  35.306  0.00  0.00    +0.245 HD
ENDBRANCH  20  23
ENDBRANCH   3  20
BRANCH   1  25
ATOM     25  N2  UNL     1     -27.633  19.639  33.572  0.00  0.00    -0.314 N 
ATOM     26  H8  UNL     1     -28.623  19.434  33.835  0.00  0.00    +0.152 HD
BRANCH  25  30
ATOM     27  C3  UNL     1     -24.626  16.724  34.363  0.00  0.00    +0.036 A 
ATOM     28  C4  UNL     1     -24.671  17.397  33.132  0.00  0.00    +0.025 A 
ATOM     29  C5  UNL     1     -25.664  18.347  32.881  0.00  0.00    +0.025 A 
ATOM     30  C6  UNL     1     -26.627  18.647  33.856  0.00  0.00    +0.031 A 
ATOM     31  C7  UNL     1     -26.585  17.968  35.089  0.00  0.00    +0.025 A 
ATOM     32  C8  UNL     1     -25.591  17.019  35.340  0.00  0.00    +0.025 A 
BRANCH  27  36
ATOM     33  C1  UNL     1     -21.402  15.102  35.796  0.00  0.00    +0.109 C 
ATOM     34  C2  UNL     1     -22.442  16.114  35.415  0.00  0.00    +0.216 C 
ATOM     35  O1  UNL     1     -22.286  17.308  35.794  0.00  0.00    -0.276 OA
ATOM     36  N1  UNL     1     -23.595  15.751  34.625  0.00  0.00    -0.275 N 
ATOM     37  C23 UNL     1     -23.668  14.438  33.975  0.00  0.00    +0.138 C 
ENDBRANCH  27  36
ENDBRANCH  25  30
ENDBRANCH   1  25
TORSDOF 6
ENDMDL
MODEL 9
REMARK minimizedAffinity -7.15969324
REMARK minimizedRMSD -1
REMARK  Name = /home/tchapet/Post-Doc/ARTICLES-DOSSIERS-DES-ARTICLES-EN-REDACTION/NOUVELS-AXES-DE-RECHERCHE-A-REGARDER-URGEMMENT/ARTICLES-EN-REDACTIONS/ARTICLE_MVOTO/Paper2_JCIM/docking_rerun/ligands/17574.pdb
REMARK  8 active torsions:
REMARK  status: ('A' for Active; 'I' for Inactive)
REMARK    1  A    between atoms: C1_1  and  C2_2
REMARK    2  A    between atoms: N1_4  and  C3_5
REMARK    3  A    between atoms: N1_4  and  C23_33
REMARK    4  A    between atoms: C6_8  and  N2_11
REMARK    5  A    between atoms: N2_11  and  C9_12
REMARK    6  A    between atoms: C11_14  and  S1_29
REMARK    7  A    between atoms: C12_15  and  N3_28
REMARK    8  A    between atoms: S1_29  and  O6_32
REMARK                            x       y       z     vdW  Elec       q    Type
REMARK                         _______ _______ _______ _____ _____    ______ ____
ROOT
ATOM      1  C9  UNL     1     -27.257  12.231   7.111  0.00  0.00    +0.045 A 
ATOM      2  C10 UNL     1     -28.024  12.857   8.091  0.00  0.00    +0.055 A 
ATOM      3  C11 UNL     1     -27.561  13.992   8.756  0.00  0.00    +0.140 A 
ATOM      4  C12 UNL     1     -26.273  14.496   8.469  0.00  0.00    +0.064 A 
ATOM      5  C13 UNL     1     -25.456  13.839   7.505  0.00  0.00    +0.057 A 
ATOM      6  C14 UNL     1     -25.989  12.756   6.759  0.00  0.00    +0.056 A 
ATOM      7  C15 UNL     1     -25.220  12.223   5.596  0.00  0.00    +0.196 C 
ATOM      8  O2  UNL     1     -25.761  11.422   4.786  0.00  0.00    -0.287 OA
ATOM      9  C16 UNL     1     -23.838  12.679   5.338  0.00  0.00    +0.033 A 
ATOM     10  C17 UNL     1     -23.095  12.147   4.267  0.00  0.00    +0.012 A 
ATOM     11  C18 UNL     1     -21.790  12.581   4.027  0.00  0.00    +0.001 A 
ATOM     12  C19 UNL     1     -21.212  13.547   4.850  0.00  0.00    +0.001 A 
ATOM     13  C20 UNL     1     -21.938  14.082   5.917  0.00  0.00    +0.012 A 
ATOM     14  C21 UNL     1     -23.256  13.654   6.168  0.00  0.00    +0.033 A 
ATOM     15  C22 UNL     1     -24.024  14.211   7.304  0.00  0.00    +0.196 C 
ATOM     16  O3  UNL     1     -23.427  14.942   8.140  0.00  0.00    -0.287 OA
ENDROOT
BRANCH   4  17
ATOM     17  N3  UNL     1     -25.826  15.703   9.106  0.00  0.00    -0.356 N 
ATOM     18  H14 UNL     1     -26.133  15.962  10.068  0.00  0.00    +0.142 HD
ATOM     19  H15 UNL     1     -25.275  16.413   8.577  0.00  0.00    +0.142 HD
ENDBRANCH   4  17
BRANCH   3  20
ATOM     20  S1  UNL     1     -28.628  14.775   9.932  0.00  0.00    +0.111 S 
ATOM     21  O4  UNL     1     -29.952  14.064   9.955  0.00  0.00    -0.142 OA
ATOM     22  O5  UNL     1     -27.996  14.727  11.294  0.00  0.00    -0.142 OA
BRANCH  20  23
ATOM     23  O6  UNL     1     -28.878  16.384   9.509  0.00  0.00    -0.250 OA
ATOM     24  H16 UNL     1     -29.488  16.739  10.205  0.00  0.00    +0.245 HD
ENDBRANCH  20  23
ENDBRANCH   3  20
BRANCH   1  25
ATOM     25  N2  UNL     1     -27.784  11.042   6.503  0.00  0.00    -0.314 N 
ATOM     26  H8  UNL     1     -28.379  11.161   5.652  0.00  0.00    +0.152 HD
BRANCH  25  30
ATOM     27  C3  UNL     1     -27.641   7.188   8.314  0.00  0.00    +0.036 A 
ATOM     28  C4  UNL     1     -28.857   7.871   8.172  0.00  0.00    +0.025 A 
ATOM     29  C5  UNL     1     -28.893   9.137   7.581  0.00  0.00    +0.025 A 
ATOM     30  C6  UNL     1     -27.714   9.740   7.116  0.00  0.00    +0.031 A 
ATOM     31  C7  UNL     1     -26.493   9.056   7.265  0.00  0.00    +0.025 A 
ATOM     32  C8  UNL     1     -26.458   7.790   7.855  0.00  0.00    +0.025 A 
BRANCH  27  36
ATOM     33  C1  UNL     1     -27.429   4.400  11.010  0.00  0.00    +0.109 C 
ATOM     34  C2  UNL     1     -27.367   5.737  10.333  0.00  0.00    +0.216 C 
ATOM     35  O1  UNL     1     -27.088   6.751  11.030  0.00  0.00    -0.276 OA
ATOM     36  N1  UNL     1     -27.607   5.877   8.915  0.00  0.00    -0.275 N 
ATOM     37  C23 UNL     1     -27.689   4.693   8.054  0.00  0.00    +0.138 C 
ENDBRANCH  27  36
ENDBRANCH  25  30
ENDBRANCH   1  25
TORSDOF 6
ENDMDL
