MODEL 1
REMARK minimizedAffinity -7.20516491
REMARK minimizedRMSD -1
REMARK  Name = /home/tchapet/Post-Doc/ARTICLES-DOSSIERS-DES-ARTICLES-EN-REDACTION/NOUVELS-AXES-DE-RECHERCHE-A-REGARDER-URGEMMENT/ARTICLES-EN-REDACTIONS/ARTICLE_MVOTO/Paper2_JCIM/docking_rerun/ligands/17574.pdb
REMARK  8 active torsions:
REMARK  status: ('A' for Active; 'I' for Inactive)
REMARK    1  A    between atoms: C1_1  and  C2_2
REMARK    2  A    between atoms: N1_4  and  C3_5
REMARK    3  A    between atoms: N1_4  and  C23_33
REMARK    4  A    between atoms: C6_8  and  N2_11
REMARK    5  A    between atoms: N2_11  and  C9_12
REMARK    6  A    between atoms: C11_14  and  S1_29
REMARK    7  A    between atoms: C12_15  and  N3_28
REMARK    8  A    between atoms: S1_29  and  O6_32
REMARK                            x       y       z     vdW  Elec       q    Type
REMARK                         _______ _______ _______ _____ _____    ______ ____
ROOT
ATOM      1  C9  UNL     1      10.369  -8.972  29.507  0.00  0.00    +0.045 A 
ATOM      2  C10 UNL     1       9.918  -7.936  30.323  0.00  0.00    +0.055 A 
ATOM      3  C11 UNL     1       8.600  -7.893  30.775  0.00  0.00    +0.140 A 
ATOM      4  C12 UNL     1       7.686  -8.888  30.365  0.00  0.00    +0.064 A 
ATOM      5  C13 UNL     1       8.117  -9.926  29.491  0.00  0.00    +0.057 A 
ATOM      6  C14 UNL     1       9.487 -10.017  29.135  0.00  0.00    +0.056 A 
ATOM      7  C15 UNL     1       9.976 -11.229  28.415  0.00  0.00    +0.196 C 
ATOM      8  O2  UNL     1      11.213 -11.440  28.285  0.00  0.00    -0.287 OA
ATOM      9  C16 UNL     1       9.020 -12.234  27.904  0.00  0.00    +0.033 A 
ATOM     10  C17 UNL     1       9.474 -13.357  27.187  0.00  0.00    +0.012 A 
ATOM     11  C18 UNL     1       8.568 -14.304  26.707  0.00  0.00    +0.001 A 
ATOM     12  C19 UNL     1       7.202 -14.142  26.934  0.00  0.00    +0.001 A 
ATOM     13  C20 UNL     1       6.738 -13.032  27.643  0.00  0.00    +0.012 A 
ATOM     14  C21 UNL     1       7.642 -12.071  28.134  0.00  0.00    +0.033 A 
ATOM     15  C22 UNL     1       7.153 -10.887  28.876  0.00  0.00    +0.196 C 
ATOM     16  O3  UNL     1       5.913 -10.664  28.914  0.00  0.00    -0.287 OA
ENDROOT
BRANCH   4  17
ATOM     17  N3  UNL     1       6.348  -8.879  30.886  0.00  0.00    -0.356 N 
ATOM     18  H14 UNL     1       5.861  -7.990  31.133  0.00  0.00    +0.142 HD
ATOM     19  H15 UNL     1       5.868  -9.769  31.142  0.00  0.00    +0.142 HD
ENDBRANCH   4  17
BRANCH   3  20
ATOM     20  S1  UNL     1       8.128  -6.587  31.873  0.00  0.00    +0.111 S 
ATOM     21  O4  UNL     1       9.237  -5.577  31.954  0.00  0.00    -0.142 OA
ATOM     22  O5  UNL     1       6.874  -5.932  31.365  0.00  0.00    -0.142 OA
BRANCH  20  23
ATOM     23  O6  UNL     1       7.830  -7.200  33.412  0.00  0.00    -0.250 OA
ATOM     24  H16 UNL     1       7.587  -6.410  33.959  0.00  0.00    +0.245 HD
ENDBRANCH  20  23
ENDBRANCH   3  20
BRANCH   1  25
ATOM     25  N2  UNL     1      11.728  -8.922  29.046  0.00  0.00    -0.314 N 
ATOM     26  H8  UNL     1      12.310  -9.780  29.178  0.00  0.00    +0.152 HD
BRANCH  25  30
ATOM     27  C3  UNL     1      13.612  -5.332  27.736  0.00  0.00    +0.036 A 
ATOM     28  C4  UNL     1      12.746  -6.041  26.890  0.00  0.00    +0.025 A 
ATOM     29  C5  UNL     1      12.137  -7.220  27.327  0.00  0.00    +0.025 A 
ATOM     30  C6  UNL     1      12.378  -7.709  28.620  0.00  0.00    +0.031 A 
ATOM     31  C7  UNL     1      13.251  -7.000  29.467  0.00  0.00    +0.025 A 
ATOM     32  C8  UNL     1      13.859  -5.821  29.029  0.00  0.00    +0.025 A 
BRANCH  27  36
ATOM     33  C1  UNL     1      14.374  -1.545  27.337  0.00  0.00    +0.109 C 
ATOM     34  C2  UNL     1      13.696  -2.833  27.698  0.00  0.00    +0.216 C 
ATOM     35  O1  UNL     1      12.627  -2.783  28.368  0.00  0.00    -0.276 OA
ATOM     36  N1  UNL     1      14.232  -4.110  27.286  0.00  0.00    -0.275 N 
ATOM     37  C23 UNL     1      15.324  -4.178  26.310  0.00  0.00    +0.138 C 
ENDBRANCH  27  36
ENDBRANCH  25  30
ENDBRANCH   1  25
TORSDOF 6
ENDMDL
MODEL 2
REMARK minimizedAffinity -7.19984913
REMARK minimizedRMSD -1
REMARK  Name = /home/tchapet/Post-Doc/ARTICLES-DOSSIERS-DES-ARTICLES-EN-REDACTION/NOUVELS-AXES-DE-RECHERCHE-A-REGARDER-URGEMMENT/ARTICLES-EN-REDACTIONS/ARTICLE_MVOTO/Paper2_JCIM/docking_rerun/ligands/17574.pdb
REMARK  8 active torsions:
REMARK  status: ('A' for Active; 'I' for Inactive)
REMARK    1  A    between atoms: C1_1  and  C2_2
REMARK    2  A    between atoms: N1_4  and  C3_5
REMARK    3  A    between atoms: N1_4  and  C23_33
REMARK    4  A    between atoms: C6_8  and  N2_11
REMARK    5  A    between atoms: N2_11  and  C9_12
REMARK    6  A    between atoms: C11_14  and  S1_29
REMARK    7  A    between atoms: C12_15  and  N3_28
REMARK    8  A    between atoms: S1_29  and  O6_32
REMARK                            x       y       z     vdW  Elec       q    Type
REMARK                         _______ _______ _______ _____ _____    ______ ____
ROOT
ATOM      1  C9  UNL     1      -0.258 -17.184  12.484  0.00  0.00    +0.045 A 
ATOM      2  C10 UNL     1      -1.442 -16.678  11.950  0.00  0.00    +0.055 A 
ATOM      3  C11 UNL     1      -1.794 -16.914  10.623  0.00  0.00    +0.140 A 
ATOM      4  C12 UNL     1      -0.920 -17.639   9.783  0.00  0.00    +0.064 A 
ATOM      5  C13 UNL     1       0.316 -18.121  10.299  0.00  0.00    +0.057 A 
ATOM      6  C14 UNL     1       0.604 -17.969  11.680  0.00  0.00    +0.056 A 
ATOM      7  C15 UNL     1       1.785 -18.674  12.261  0.00  0.00    +0.196 C 
ATOM      8  O2  UNL     1       1.937 -18.741  13.512  0.00  0.00    -0.287 OA
ATOM      9  C16 UNL     1       2.754 -19.362  11.383  0.00  0.00    +0.033 A 
ATOM     10  C17 UNL     1       3.891 -19.991  11.925  0.00  0.00    +0.012 A 
ATOM     11  C18 UNL     1       4.805 -20.641  11.093  0.00  0.00    +0.001 A 
ATOM     12  C19 UNL     1       4.596 -20.668   9.714  0.00  0.00    +0.001 A 
ATOM     13  C20 UNL     1       3.473 -20.046   9.164  0.00  0.00    +0.012 A 
ATOM     14  C21 UNL     1       2.543 -19.390   9.993  0.00  0.00    +0.033 A 
ATOM     15  C22 UNL     1       1.358 -18.721   9.413  0.00  0.00    +0.196 C 
ATOM     16  O3  UNL     1       1.282 -18.599   8.160  0.00  0.00    -0.287 OA
ENDROOT
BRANCH   4  17
ATOM     17  N3  UNL     1      -1.317 -17.939   8.436  0.00  0.00    -0.356 N 
ATOM     18  H14 UNL     1      -1.928 -17.296   7.888  0.00  0.00    +0.142 HD
ATOM     19  H15 UNL     1      -1.101 -18.866   8.009  0.00  0.00    +0.142 HD
ENDBRANCH   4  17
BRANCH   3  20
ATOM     20  S1  UNL     1      -3.352 -16.305  10.043  0.00  0.00    +0.111 S 
ATOM     21  O4  UNL     1      -4.200 -17.458   9.584  0.00  0.00    -0.142 OA
ATOM     22  O5  UNL     1      -4.048 -15.566  11.151  0.00  0.00    -0.142 OA
BRANCH  20  23
ATOM     23  O6  UNL     1      -3.121 -15.249   8.753  0.00  0.00    -0.250 OA
ATOM     24  H16 UNL     1      -4.033 -14.968   8.486  0.00  0.00    +0.245 HD
ENDBRANCH  20  23
ENDBRANCH   3  20
BRANCH   1  25
ATOM     25  N2  UNL     1       0.057 -16.860  13.847  0.00  0.00    -0.314 N 
ATOM     26  H8  UNL     1       0.441 -17.626  14.446  0.00  0.00    +0.152 HD
BRANCH  25  30
ATOM     27  C3  UNL     1      -1.097 -13.229  15.756  0.00  0.00    +0.036 A 
ATOM     28  C4  UNL     1      -1.612 -14.461  16.183  0.00  0.00    +0.025 A 
ATOM     29  C5  UNL     1      -1.231 -15.646  15.547  0.00  0.00    +0.025 A 
ATOM     30  C6  UNL     1      -0.324 -15.621  14.477  0.00  0.00    +0.031 A 
ATOM     31  C7  UNL     1       0.188 -14.383  14.045  0.00  0.00    +0.025 A 
ATOM     32  C8  UNL     1      -0.192 -13.199  14.682  0.00  0.00    +0.025 A 
BRANCH  27  36
ATOM     33  C1  UNL     1      -0.907 -10.061  17.994  0.00  0.00    +0.109 C 
ATOM     34  C2  UNL     1      -0.586 -11.384  17.364  0.00  0.00    +0.216 C 
ATOM     35  O1  UNL     1       0.492 -11.957  17.686  0.00  0.00    -0.276 OA
ATOM     36  N1  UNL     1      -1.482 -12.008  16.419  0.00  0.00    -0.275 N 
ATOM     37  C23 UNL     1      -2.838 -11.483  16.221  0.00  0.00    +0.138 C 
ENDBRANCH  27  36
ENDBRANCH  25  30
ENDBRANCH   1  25
TORSDOF 6
ENDMDL
MODEL 3
REMARK minimizedAffinity -6.99121618
REMARK minimizedRMSD -1
REMARK  Name = /home/tchapet/Post-Doc/ARTICLES-DOSSIERS-DES-ARTICLES-EN-REDACTION/NOUVELS-AXES-DE-RECHERCHE-A-REGARDER-URGEMMENT/ARTICLES-EN-REDACTIONS/ARTICLE_MVOTO/Paper2_JCIM/docking_rerun/ligands/17574.pdb
REMARK  8 active torsions:
REMARK  status: ('A' for Active; 'I' for Inactive)
REMARK    1  A    between atoms: C1_1  and  C2_2
REMARK    2  A    between atoms: N1_4  and  C3_5
REMARK    3  A    between atoms: N1_4  and  C23_33
REMARK    4  A    between atoms: C6_8  and  N2_11
REMARK    5  A    between atoms: N2_11  and  C9_12
REMARK    6  A    between atoms: C11_14  and  S1_29
REMARK    7  A    between atoms: C12_15  and  N3_28
REMARK    8  A    between atoms: S1_29  and  O6_32
REMARK                            x       y       z     vdW  Elec       q    Type
REMARK                         _______ _______ _______ _____ _____    ______ ____
ROOT
ATOM      1  C9  UNL     1      -0.178  -2.023   2.140  0.00  0.00    +0.045 A 
ATOM      2  C10 UNL     1       0.511  -3.171   2.527  0.00  0.00    +0.055 A 
ATOM      3  C11 UNL     1      -0.157  -4.264   3.076  0.00  0.00    +0.140 A 
ATOM      4  C12 UNL     1      -1.552  -4.198   3.291  0.00  0.00    +0.064 A 
ATOM      5  C13 UNL     1      -2.263  -3.014   2.947  0.00  0.00    +0.057 A 
ATOM      6  C14 UNL     1      -1.586  -1.958   2.285  0.00  0.00    +0.056 A 
ATOM      7  C15 UNL     1      -2.376  -0.824   1.720  0.00  0.00    +0.196 C 
ATOM      8  O2  UNL     1      -1.834   0.006   0.941  0.00  0.00    -0.287 OA
ATOM      9  C16 UNL     1      -3.819  -0.698   2.012  0.00  0.00    +0.033 A 
ATOM     10  C17 UNL     1      -4.558   0.394   1.516  0.00  0.00    +0.012 A 
ATOM     11  C18 UNL     1      -5.921   0.509   1.793  0.00  0.00    +0.001 A 
ATOM     12  C19 UNL     1      -6.561  -0.458   2.567  0.00  0.00    +0.001 A 
ATOM     13  C20 UNL     1      -5.840  -1.545   3.066  0.00  0.00    +0.012 A 
ATOM     14  C21 UNL     1      -4.465  -1.674   2.791  0.00  0.00    +0.033 A 
ATOM     15  C22 UNL     1      -3.694  -2.818   3.327  0.00  0.00    +0.196 C 
ATOM     16  O3  UNL     1      -4.244  -3.579   4.169  0.00  0.00    -0.287 OA
ENDROOT
BRANCH   4  17
ATOM     17  N3  UNL     1      -2.247  -5.350   3.793  0.00  0.00    -0.356 N 
ATOM     18  H14 UNL     1      -1.791  -6.026   4.443  0.00  0.00    +0.142 HD
ATOM     19  H15 UNL     1      -3.190  -5.606   3.428  0.00  0.00    +0.142 HD
ENDBRANCH   4  17
BRANCH   3  20
ATOM     20  S1  UNL     1       0.779  -5.715   3.467  0.00  0.00    +0.111 S 
ATOM     21  O4  UNL     1       0.297  -6.863   2.624  0.00  0.00    -0.142 OA
ATOM     22  O5  UNL     1       2.236  -5.460   3.202  0.00  0.00    -0.142 OA
BRANCH  20  23
ATOM     23  O6  UNL     1       0.588  -6.110   5.092  0.00  0.00    -0.250 OA
ATOM     24  H16 UNL     1       1.129  -6.930   5.220  0.00  0.00    +0.245 HD
ENDBRANCH  20  23
ENDBRANCH   3  20
BRANCH   1  25
ATOM     25  N2  UNL     1       0.586  -0.922   1.623  0.00  0.00    -0.314 N 
ATOM     26  H8  UNL     1       0.279   0.041   1.887  0.00  0.00    +0.152 HD
BRANCH  25  30
ATOM     27  C3  UNL     1       3.625  -1.344  -1.334  0.00  0.00    +0.036 A 
ATOM     28  C4  UNL     1       3.944  -0.956  -0.024  0.00  0.00    +0.025 A 
ATOM     29  C5  UNL     1       2.940  -0.816   0.937  0.00  0.00    +0.025 A 
ATOM     30  C6  UNL     1       1.599  -1.067   0.608  0.00  0.00    +0.031 A 
ATOM     31  C7  UNL     1       1.278  -1.451  -0.707  0.00  0.00    +0.025 A 
ATOM     32  C8  UNL     1       2.284  -1.592  -1.667  0.00  0.00    +0.025 A 
BRANCH  27  36
ATOM     33  C1  UNL     1       6.271  -3.015  -3.634  0.00  0.00    +0.109 C 
ATOM     34  C2  UNL     1       5.264  -2.794  -2.544  0.00  0.00    +0.216 C 
ATOM     35  O1  UNL     1       4.952  -3.770  -1.807  0.00  0.00    -0.276 OA
ATOM     36  N1  UNL     1       4.664  -1.499  -2.322  0.00  0.00    -0.275 N 
ATOM     37  C23 UNL     1       5.189  -0.309  -3.000  0.00  0.00    +0.138 C 
ENDBRANCH  27  36
ENDBRANCH  25  30
ENDBRANCH   1  25
TORSDOF 6
ENDMDL
MODEL 4
REMARK minimizedAffinity -6.95342731
REMARK minimizedRMSD -1
REMARK  Name = /home/tchapet/Post-Doc/ARTICLES-DOSSIERS-DES-ARTICLES-EN-REDACTION/NOUVELS-AXES-DE-RECHERCHE-A-REGARDER-URGEMMENT/ARTICLES-EN-REDACTIONS/ARTICLE_MVOTO/Paper2_JCIM/docking_rerun/ligands/17574.pdb
REMARK  8 active torsions:
REMARK  status: ('A' for Active; 'I' for Inactive)
REMARK    1  A    between atoms: C1_1  and  C2_2
REMARK    2  A    between atoms: N1_4  and  C3_5
REMARK    3  A    between atoms: N1_4  and  C23_33
REMARK    4  A    between atoms: C6_8  and  N2_11
REMARK    5  A    between atoms: N2_11  and  C9_12
REMARK    6  A    between atoms: C11_14  and  S1_29
REMARK    7  A    between atoms: C12_15  and  N3_28
REMARK    8  A    between atoms: S1_29  and  O6_32
REMARK                            x       y       z     vdW  Elec       q    Type
REMARK                         _______ _______ _______ _____ _____    ______ ____
ROOT
ATOM      1  C9  UNL     1       9.714 -12.008  28.084  0.00  0.00    +0.045 A 
ATOM      2  C10 UNL     1       8.894 -11.115  28.772  0.00  0.00    +0.055 A 
ATOM      3  C11 UNL     1       7.513 -11.296  28.825  0.00  0.00    +0.140 A 
ATOM      4  C12 UNL     1       6.920 -12.375  28.133  0.00  0.00    +0.064 A 
ATOM      5  C13 UNL     1       7.738 -13.268  27.384  0.00  0.00    +0.057 A 
ATOM      6  C14 UNL     1       9.149 -13.135  27.436  0.00  0.00    +0.056 A 
ATOM      7  C15 UNL     1      10.006 -14.204  26.844  0.00  0.00    +0.196 C 
ATOM      8  O2  UNL     1      11.247 -14.225  27.069  0.00  0.00    -0.287 OA
ATOM      9  C16 UNL     1       9.404 -15.290  26.043  0.00  0.00    +0.033 A 
ATOM     10  C17 UNL     1      10.213 -16.276  25.448  0.00  0.00    +0.012 A 
ATOM     11  C18 UNL     1       9.640 -17.301  24.693  0.00  0.00    +0.001 A 
ATOM     12  C19 UNL     1       8.258 -17.353  24.521  0.00  0.00    +0.001 A 
ATOM     13  C20 UNL     1       7.443 -16.380  25.105  0.00  0.00    +0.012 A 
ATOM     14  C21 UNL     1       8.009 -15.342  25.871  0.00  0.00    +0.033 A 
ATOM     15  C22 UNL     1       7.150 -14.304  26.482  0.00  0.00    +0.196 C 
ATOM     16  O3  UNL     1       5.930 -14.262  26.168  0.00  0.00    -0.287 OA
ENDROOT
BRANCH   4  17
ATOM     17  N3  UNL     1       5.506 -12.598  28.245  0.00  0.00    -0.356 N 
ATOM     18  H14 UNL     1       4.835 -11.810  28.373  0.00  0.00    +0.142 HD
ATOM     19  H15 UNL     1       5.121 -13.565  28.320  0.00  0.00    +0.142 HD
ENDBRANCH   4  17
BRANCH   3  20
ATOM     20  S1  UNL     1       6.550 -10.163  29.787  0.00  0.00    +0.111 S 
ATOM     21  O4  UNL     1       5.984 -10.878  30.981  0.00  0.00    -0.142 OA
ATOM     22  O5  UNL     1       7.418  -9.022  30.237  0.00  0.00    -0.142 OA
BRANCH  20  23
ATOM     23  O6  UNL     1       5.285  -9.547  28.865  0.00  0.00    -0.250 OA
ATOM     24  H16 UNL     1       4.796  -8.939  29.476  0.00  0.00    +0.245 HD
ENDBRANCH  20  23
ENDBRANCH   3  20
BRANCH   1  25
ATOM     25  N2  UNL     1      11.122 -11.729  28.038  0.00  0.00    -0.314 N 
ATOM     26  H8  UNL     1      11.768 -12.462  28.409  0.00  0.00    +0.152 HD
BRANCH  25  30
ATOM     27  C3  UNL     1      12.775  -7.911  27.120  0.00  0.00    +0.036 A 
ATOM     28  C4  UNL     1      13.324  -8.708  28.136  0.00  0.00    +0.025 A 
ATOM     29  C5  UNL     1      12.772  -9.956  28.432  0.00  0.00    +0.025 A 
ATOM     30  C6  UNL     1      11.664 -10.434  27.716  0.00  0.00    +0.031 A 
ATOM     31  C7  UNL     1      11.110  -9.632  26.701  0.00  0.00    +0.025 A 
ATOM     32  C8  UNL     1      11.664  -8.384  26.404  0.00  0.00    +0.025 A 
BRANCH  27  36
ATOM     33  C1  UNL     1      13.867  -4.202  27.483  0.00  0.00    +0.109 C 
ATOM     34  C2  UNL     1      13.193  -5.520  27.722  0.00  0.00    +0.216 C 
ATOM     35  O1  UNL     1      12.464  -5.646  28.745  0.00  0.00    -0.276 OA
ATOM     36  N1  UNL     1      13.353  -6.627  26.808  0.00  0.00    -0.275 N 
ATOM     37  C23 UNL     1      13.989  -6.427  25.502  0.00  0.00    +0.138 C 
ENDBRANCH  27  36
ENDBRANCH  25  30
ENDBRANCH   1  25
TORSDOF 6
ENDMDL
MODEL 5
REMARK minimizedAffinity -6.88862801
REMARK minimizedRMSD -1
REMARK  Name = /home/tchapet/Post-Doc/ARTICLES-DOSSIERS-DES-ARTICLES-EN-REDACTION/NOUVELS-AXES-DE-RECHERCHE-A-REGARDER-URGEMMENT/ARTICLES-EN-REDACTIONS/ARTICLE_MVOTO/Paper2_JCIM/docking_rerun/ligands/17574.pdb
REMARK  8 active torsions:
REMARK  status: ('A' for Active; 'I' for Inactive)
REMARK    1  A    between atoms: C1_1  and  C2_2
REMARK    2  A    between atoms: N1_4  and  C3_5
REMARK    3  A    between atoms: N1_4  and  C23_33
REMARK    4  A    between atoms: C6_8  and  N2_11
REMARK    5  A    between atoms: N2_11  and  C9_12
REMARK    6  A    between atoms: C11_14  and  S1_29
REMARK    7  A    between atoms: C12_15  and  N3_28
REMARK    8  A    between atoms: S1_29  and  O6_32
REMARK                            x       y       z     vdW  Elec       q    Type
REMARK                         _______ _______ _______ _____ _____    ______ ____
ROOT
ATOM      1  C9  UNL     1      11.567 -14.199  -0.863  0.00  0.00    +0.045 A 
ATOM      2  C10 UNL     1      10.532 -13.270  -0.947  0.00  0.00    +0.055 A 
ATOM      3  C11 UNL     1       9.259 -13.643  -1.375  0.00  0.00    +0.140 A 
ATOM      4  C12 UNL     1       9.017 -14.976  -1.777  0.00  0.00    +0.064 A 
ATOM      5  C13 UNL     1      10.076 -15.926  -1.743  0.00  0.00    +0.057 A 
ATOM      6  C14 UNL     1      11.332 -15.556  -1.198  0.00  0.00    +0.056 A 
ATOM      7  C15 UNL     1      12.360 -16.609  -0.951  0.00  0.00    +0.196 C 
ATOM      8  O2  UNL     1      13.388 -16.350  -0.267  0.00  0.00    -0.287 OA
ATOM      9  C16 UNL     1      12.155 -17.987  -1.444  0.00  0.00    +0.033 A 
ATOM     10  C17 UNL     1      13.142 -18.972  -1.250  0.00  0.00    +0.012 A 
ATOM     11  C18 UNL     1      12.944 -20.273  -1.717  0.00  0.00    +0.001 A 
ATOM     12  C19 UNL     1      11.765 -20.605  -2.382  0.00  0.00    +0.001 A 
ATOM     13  C20 UNL     1      10.779 -19.637  -2.583  0.00  0.00    +0.012 A 
ATOM     14  C21 UNL     1      10.965 -18.321  -2.114  0.00  0.00    +0.033 A 
ATOM     15  C22 UNL     1       9.927 -17.290  -2.334  0.00  0.00    +0.196 C 
ATOM     16  O3  UNL     1       8.956 -17.558  -3.092  0.00  0.00    -0.287 OA
ENDROOT
BRANCH   4  17
ATOM     17  N3  UNL     1       7.688 -15.372  -2.152  0.00  0.00    -0.356 N 
ATOM     18  H14 UNL     1       7.026 -14.709  -2.608  0.00  0.00    +0.142 HD
ATOM     19  H15 UNL     1       7.310 -16.303  -1.872  0.00  0.00    +0.142 HD
ENDBRANCH   4  17
BRANCH   3  20
ATOM     20  S1  UNL     1       7.978 -12.421  -1.379  0.00  0.00    +0.111 S 
ATOM     21  O4  UNL     1       7.550 -12.151  -2.794  0.00  0.00    -0.142 OA
ATOM     22  O5  UNL     1       6.809 -12.915  -0.574  0.00  0.00    -0.142 OA
BRANCH  20  23
ATOM     23  O6  UNL     1       8.537 -10.990  -0.693  0.00  0.00    -0.250 OA
ATOM     24  H16 UNL     1       7.771 -10.364  -0.745  0.00  0.00    +0.245 HD
ENDBRANCH  20  23
ENDBRANCH   3  20
BRANCH   1  25
ATOM     25  N2  UNL     1      12.861 -13.729  -0.455  0.00  0.00    -0.314 N 
ATOM     26  H8  UNL     1      13.088 -13.771   0.564  0.00  0.00    +0.152 HD
BRANCH  25  30
ATOM     27  C3  UNL     1      15.477 -11.637  -3.090  0.00  0.00    +0.036 A 
ATOM     28  C4  UNL     1      14.448 -12.449  -3.591  0.00  0.00    +0.025 A 
ATOM     29  C5  UNL     1      13.599 -13.134  -2.719  0.00  0.00    +0.025 A 
ATOM     30  C6  UNL     1      13.758 -13.017  -1.330  0.00  0.00    +0.031 A 
ATOM     31  C7  UNL     1      14.794 -12.207  -0.828  0.00  0.00    +0.025 A 
ATOM     32  C8  UNL     1      15.642 -11.521  -1.700  0.00  0.00    +0.025 A 
BRANCH  27  36
ATOM     33  C1  UNL     1      17.176  -8.699  -4.977  0.00  0.00    +0.109 C 
ATOM     34  C2  UNL     1      16.223  -9.489  -4.131  0.00  0.00    +0.216 C 
ATOM     35  O1  UNL     1      15.291  -8.875  -3.541  0.00  0.00    -0.276 OA
ATOM     36  N1  UNL     1      16.346 -10.922  -3.992  0.00  0.00    -0.275 N 
ATOM     37  C23 UNL     1      17.260 -11.677  -4.854  0.00  0.00    +0.138 C 
ENDBRANCH  27  36
ENDBRANCH  25  30
ENDBRANCH   1  25
TORSDOF 6
ENDMDL
MODEL 6
REMARK minimizedAffinity -6.77111769
REMARK minimizedRMSD -1
REMARK  Name = /home/tchapet/Post-Doc/ARTICLES-DOSSIERS-DES-ARTICLES-EN-REDACTION/NOUVELS-AXES-DE-RECHERCHE-A-REGARDER-URGEMMENT/ARTICLES-EN-REDACTIONS/ARTICLE_MVOTO/Paper2_JCIM/docking_rerun/ligands/17574.pdb
REMARK  8 active torsions:
REMARK  status: ('A' for Active; 'I' for Inactive)
REMARK    1  A    between atoms: C1_1  and  C2_2
REMARK    2  A    between atoms: N1_4  and  C3_5
REMARK    3  A    between atoms: N1_4  and  C23_33
REMARK    4  A    between atoms: C6_8  and  N2_11
REMARK    5  A    between atoms: N2_11  and  C9_12
REMARK    6  A    between atoms: C11_14  and  S1_29
REMARK    7  A    between atoms: C12_15  and  N3_28
REMARK    8  A    between atoms: S1_29  and  O6_32
REMARK                            x       y       z     vdW  Elec       q    Type
REMARK                         _______ _______ _______ _____ _____    ______ ____
ROOT
ATOM      1  C9  UNL     1      -8.918   6.367  20.515  0.00  0.00    +0.045 A 
ATOM      2  C10 UNL     1      -8.862   5.586  19.362  0.00  0.00    +0.055 A 
ATOM      3  C11 UNL     1      -8.150   6.005  18.239  0.00  0.00    +0.140 A 
ATOM      4  C12 UNL     1      -7.509   7.264  18.245  0.00  0.00    +0.064 A 
ATOM      5  C13 UNL     1      -7.598   8.096  19.397  0.00  0.00    +0.057 A 
ATOM      6  C14 UNL     1      -8.229   7.604  20.568  0.00  0.00    +0.056 A 
ATOM      7  C15 UNL     1      -8.118   8.379  21.838  0.00  0.00    +0.196 C 
ATOM      8  O2  UNL     1      -8.471   7.865  22.934  0.00  0.00    -0.287 OA
ATOM      9  C16 UNL     1      -7.528   9.735  21.840  0.00  0.00    +0.033 A 
ATOM     10  C17 UNL     1      -7.461  10.486  23.029  0.00  0.00    +0.012 A 
ATOM     11  C18 UNL     1      -6.903  11.766  23.026  0.00  0.00    +0.001 A 
ATOM     12  C19 UNL     1      -6.409  12.310  21.841  0.00  0.00    +0.001 A 
ATOM     13  C20 UNL     1      -6.471  11.576  20.655  0.00  0.00    +0.012 A 
ATOM     14  C21 UNL     1      -7.030  10.283  20.645  0.00  0.00    +0.033 A 
ATOM     15  C22 UNL     1      -7.107   9.507  19.388  0.00  0.00    +0.196 C 
ATOM     16  O3  UNL     1      -6.826  10.081  18.301  0.00  0.00    -0.287 OA
ENDROOT
BRANCH   4  17
ATOM     17  N3  UNL     1      -6.721   7.663  17.113  0.00  0.00    -0.356 N 
ATOM     18  H14 UNL     1      -6.959   7.359  16.144  0.00  0.00    +0.142 HD
ATOM     19  H15 UNL     1      -5.821   8.174  17.242  0.00  0.00    +0.142 HD
ENDBRANCH   4  17
BRANCH   3  20
ATOM     20  S1  UNL     1      -8.061   4.920  16.843  0.00  0.00    +0.111 S 
ATOM     21  O4  UNL     1      -8.957   3.735  17.074  0.00  0.00    -0.142 OA
ATOM     22  O5  UNL     1      -8.493   5.656  15.606  0.00  0.00    -0.142 OA
BRANCH  20  23
ATOM     23  O6  UNL     1      -6.482   4.380  16.625  0.00  0.00    -0.250 OA
ATOM     24  H16 UNL     1      -6.525   3.776  15.840  0.00  0.00    +0.245 HD
ENDBRANCH  20  23
ENDBRANCH   3  20
BRANCH   1  25
ATOM     25  N2  UNL     1      -9.707   5.887  21.614  0.00  0.00    -0.314 N 
ATOM     26  H8  UNL     1     -10.262   6.592  22.150  0.00  0.00    +0.152 HD
BRANCH  25  30
ATOM     27  C3  UNL     1      -9.366   1.948  23.205  0.00  0.00    +0.036 A 
ATOM     28  C4  UNL     1      -8.426   2.938  23.526  0.00  0.00    +0.025 A 
ATOM     29  C5  UNL     1      -8.544   4.225  22.995  0.00  0.00    +0.025 A 
ATOM     30  C6  UNL     1      -9.607   4.548  22.138  0.00  0.00    +0.031 A 
ATOM     31  C7  UNL     1     -10.547   3.553  21.812  0.00  0.00    +0.025 A 
ATOM     32  C8  UNL     1     -10.429   2.267  22.344  0.00  0.00    +0.025 A 
BRANCH  27  36
ATOM     33  C1  UNL     1      -8.039  -1.641  23.866  0.00  0.00    +0.109 C 
ATOM     34  C2  UNL     1      -8.261  -0.295  23.243  0.00  0.00    +0.216 C 
ATOM     35  O1  UNL     1      -7.568   0.025  22.238  0.00  0.00    -0.276 OA
ATOM     36  N1  UNL     1      -9.249   0.623  23.762  0.00  0.00    -0.275 N 
ATOM     37  C23 UNL     1     -10.224   0.179  24.764  0.00  0.00    +0.138 C 
ENDBRANCH  27  36
ENDBRANCH  25  30
ENDBRANCH   1  25
TORSDOF 6
ENDMDL
MODEL 7
REMARK minimizedAffinity -6.76892138
REMARK minimizedRMSD -1
REMARK  Name = /home/tchapet/Post-Doc/ARTICLES-DOSSIERS-DES-ARTICLES-EN-REDACTION/NOUVELS-AXES-DE-RECHERCHE-A-REGARDER-URGEMMENT/ARTICLES-EN-REDACTIONS/ARTICLE_MVOTO/Paper2_JCIM/docking_rerun/ligands/17574.pdb
REMARK  8 active torsions:
REMARK  status: ('A' for Active; 'I' for Inactive)
REMARK    1  A    between atoms: C1_1  and  C2_2
REMARK    2  A    between atoms: N1_4  and  C3_5
REMARK    3  A    between atoms: N1_4  and  C23_33
REMARK    4  A    between atoms: C6_8  and  N2_11
REMARK    5  A    between atoms: N2_11  and  C9_12
REMARK    6  A    between atoms: C11_14  and  S1_29
REMARK    7  A    between atoms: C12_15  and  N3_28
REMARK    8  A    between atoms: S1_29  and  O6_32
REMARK                            x       y       z     vdW  Elec       q    Type
REMARK                         _______ _______ _______ _____ _____    ______ ____
ROOT
ATOM      1  C9  UNL     1      -9.391   2.439  19.446  0.00  0.00    +0.045 A 
ATOM      2  C10 UNL     1     -10.002   1.868  18.331  0.00  0.00    +0.055 A 
ATOM      3  C11 UNL     1     -10.477   0.558  18.358  0.00  0.00    +0.140 A 
ATOM      4  C12 UNL     1     -10.299  -0.229  19.517  0.00  0.00    +0.064 A 
ATOM      5  C13 UNL     1      -9.633   0.323  20.648  0.00  0.00    +0.057 A 
ATOM      6  C14 UNL     1      -9.260   1.691  20.642  0.00  0.00    +0.056 A 
ATOM      7  C15 UNL     1      -8.776   2.322  21.906  0.00  0.00    +0.196 C 
ATOM      8  O2  UNL     1      -8.652   3.574  21.988  0.00  0.00    -0.287 OA
ATOM      9  C16 UNL     1      -8.503   1.494  23.100  0.00  0.00    +0.033 A 
ATOM     10  C17 UNL     1      -8.006   2.080  24.280  0.00  0.00    +0.012 A 
ATOM     11  C18 UNL     1      -7.750   1.295  25.405  0.00  0.00    +0.001 A 
ATOM     12  C19 UNL     1      -7.983  -0.078  25.367  0.00  0.00    +0.001 A 
ATOM     13  C20 UNL     1      -8.474  -0.673  24.202  0.00  0.00    +0.012 A 
ATOM     14  C21 UNL     1      -8.739   0.108  23.061  0.00  0.00    +0.033 A 
ATOM     15  C22 UNL     1      -9.249  -0.519  21.821  0.00  0.00    +0.196 C 
ATOM     16  O3  UNL     1      -9.280  -1.777  21.746  0.00  0.00    -0.287 OA
ENDROOT
BRANCH   4  17
ATOM     17  N3  UNL     1     -10.850  -1.554  19.566  0.00  0.00    -0.356 N 
ATOM     18  H14 UNL     1     -10.933  -2.145  18.711  0.00  0.00    +0.142 HD
ATOM     19  H15 UNL     1     -11.291  -1.918  20.439  0.00  0.00    +0.142 HD
ENDBRANCH   4  17
BRANCH   3  20
ATOM     20  S1  UNL     1     -11.313  -0.066  16.927  0.00  0.00    +0.111 S 
ATOM     21  O4  UNL     1     -12.763  -0.290  17.253  0.00  0.00    -0.142 OA
ATOM     22  O5  UNL     1     -11.187   0.922  15.801  0.00  0.00    -0.142 OA
BRANCH  20  23
ATOM     23  O6  UNL     1     -10.628  -1.525  16.443  0.00  0.00    -0.250 OA
ATOM     24  H16 UNL     1     -11.157  -1.806  15.653  0.00  0.00    +0.245 HD
ENDBRANCH  20  23
ENDBRANCH   3  20
BRANCH   1  25
ATOM     25  N2  UNL     1      -8.888   3.778  19.325  0.00  0.00    -0.314 N 
ATOM     26  H8  UNL     1      -8.534   4.237  20.195  0.00  0.00    +0.152 HD
BRANCH  25  30
ATOM     27  C3  UNL     1      -9.301   6.119  15.789  0.00  0.00    +0.036 A 
ATOM     28  C4  UNL     1      -8.188   5.287  15.975  0.00  0.00    +0.025 A 
ATOM     29  C5  UNL     1      -8.059   4.527  17.140  0.00  0.00    +0.025 A 
ATOM     30  C6  UNL     1      -9.044   4.580  18.139  0.00  0.00    +0.031 A 
ATOM     31  C7  UNL     1     -10.158   5.420  17.954  0.00  0.00    +0.025 A 
ATOM     32  C8  UNL     1     -10.286   6.179  16.788  0.00  0.00    +0.025 A 
BRANCH  27  36
ATOM     33  C1  UNL     1     -10.542   7.259  12.290  0.00  0.00    +0.109 C 
ATOM     34  C2  UNL     1     -10.294   6.429  13.515  0.00  0.00    +0.216 C 
ATOM     35  O1  UNL     1     -10.844   5.297  13.596  0.00  0.00    -0.276 OA
ATOM     36  N1  UNL     1      -9.438   6.895  14.581  0.00  0.00    -0.275 N 
ATOM     37  C23 UNL     1      -8.603   8.087  14.398  0.00  0.00    +0.138 C 
ENDBRANCH  27  36
ENDBRANCH  25  30
ENDBRANCH   1  25
TORSDOF 6
ENDMDL
MODEL 8
REMARK minimizedAffinity -6.75798607
REMARK minimizedRMSD -1
REMARK  Name = /home/tchapet/Post-Doc/ARTICLES-DOSSIERS-DES-ARTICLES-EN-REDACTION/NOUVELS-AXES-DE-RECHERCHE-A-REGARDER-URGEMMENT/ARTICLES-EN-REDACTIONS/ARTICLE_MVOTO/Paper2_JCIM/docking_rerun/ligands/17574.pdb
REMARK  8 active torsions:
REMARK  status: ('A' for Active; 'I' for Inactive)
REMARK    1  A    between atoms: C1_1  and  C2_2
REMARK    2  A    between atoms: N1_4  and  C3_5
REMARK    3  A    between atoms: N1_4  and  C23_33
REMARK    4  A    between atoms: C6_8  and  N2_11
REMARK    5  A    between atoms: N2_11  and  C9_12
REMARK    6  A    between atoms: C11_14  and  S1_29
REMARK    7  A    between atoms: C12_15  and  N3_28
REMARK    8  A    between atoms: S1_29  and  O6_32
REMARK                            x       y       z     vdW  Elec       q    Type
REMARK                         _______ _______ _______ _____ _____    ______ ____
ROOT
ATOM      1  C9  UNL     1       5.604 -17.380  24.527  0.00  0.00    +0.045 A 
ATOM      2  C10 UNL     1       4.233 -17.428  24.280  0.00  0.00    +0.055 A 
ATOM      3  C11 UNL     1       3.388 -16.399  24.692  0.00  0.00    +0.140 A 
ATOM      4  C12 UNL     1       3.914 -15.306  25.416  0.00  0.00    +0.064 A 
ATOM      5  C13 UNL     1       5.305 -15.266  25.721  0.00  0.00    +0.057 A 
ATOM      6  C14 UNL     1       6.166 -16.263  25.194  0.00  0.00    +0.056 A 
ATOM      7  C15 UNL     1       7.643 -16.092  25.319  0.00  0.00    +0.196 C 
ATOM      8  O2  UNL     1       8.429 -16.837  24.673  0.00  0.00    -0.287 OA
ATOM      9  C16 UNL     1       8.205 -15.003  26.146  0.00  0.00    +0.033 A 
ATOM     10  C17 UNL     1       9.597 -14.865  26.300  0.00  0.00    +0.012 A 
ATOM     11  C18 UNL     1      10.124 -13.835  27.081  0.00  0.00    +0.001 A 
ATOM     12  C19 UNL     1       9.270 -12.935  27.718  0.00  0.00    +0.001 A 
ATOM     13  C20 UNL     1       7.887 -13.062  27.575  0.00  0.00    +0.012 A 
ATOM     14  C21 UNL     1       7.343 -14.095  26.787  0.00  0.00    +0.033 A 
ATOM     15  C22 UNL     1       5.878 -14.240  26.642  0.00  0.00    +0.196 C 
ATOM     16  O3  UNL     1       5.124 -13.535  27.366  0.00  0.00    -0.287 OA
ENDROOT
BRANCH   4  17
ATOM     17  N3  UNL     1       3.053 -14.216  25.780  0.00  0.00    -0.356 N 
ATOM     18  H14 UNL     1       2.042 -14.362  25.989  0.00  0.00    +0.142 HD
ATOM     19  H15 UNL     1       3.390 -13.230  25.732  0.00  0.00    +0.142 HD
ENDBRANCH   4  17
BRANCH   3  20
ATOM     20  S1  UNL     1       1.672 -16.497  24.269  0.00  0.00    +0.111 S 
ATOM     21  O4  UNL     1       1.419 -17.762  23.498  0.00  0.00    -0.142 OA
ATOM     22  O5  UNL     1       0.843 -16.487  25.523  0.00  0.00    -0.142 OA
BRANCH  20  23
ATOM     23  O6  UNL     1       1.230 -15.179  23.321  0.00  0.00    -0.250 OA
ATOM     24  H16 UNL     1       0.269 -15.318  23.122  0.00  0.00    +0.245 HD
ENDBRANCH  20  23
ENDBRANCH   3  20
BRANCH   1  25
ATOM     25  N2  UNL     1       6.402 -18.498  24.110  0.00  0.00    -0.314 N 
ATOM     26  H8  UNL     1       7.139 -18.834  24.770  0.00  0.00    +0.152 HD
BRANCH  25  30
ATOM     27  C3  UNL     1       6.306 -20.112  20.168  0.00  0.00    +0.036 A 
ATOM     28  C4  UNL     1       5.672 -20.771  21.231  0.00  0.00    +0.025 A 
ATOM     29  C5  UNL     1       5.713 -20.236  22.521  0.00  0.00    +0.025 A 
ATOM     30  C6  UNL     1       6.384 -19.030  22.771  0.00  0.00    +0.031 A 
ATOM     31  C7  UNL     1       7.026 -18.372  21.705  0.00  0.00    +0.025 A 
ATOM     32  C8  UNL     1       6.983 -18.907  20.415  0.00  0.00    +0.025 A 
BRANCH  27  36
ATOM     33  C1  UNL     1       5.248 -20.653  16.471  0.00  0.00    +0.109 C 
ATOM     34  C2  UNL     1       5.266 -20.184  17.895  0.00  0.00    +0.216 C 
ATOM     35  O1  UNL     1       4.384 -19.361  18.268  0.00  0.00    -0.276 OA
ATOM     36  N1  UNL     1       6.254 -20.660  18.835  0.00  0.00    -0.275 N 
ATOM     37  C23 UNL     1       7.125 -21.789  18.490  0.00  0.00    +0.138 C 
ENDBRANCH  27  36
ENDBRANCH  25  30
ENDBRANCH   1  25
TORSDOF 6
ENDMDL
MODEL 9
REMARK minimizedAffinity -6.72458172
REMARK minimizedRMSD -1
REMARK  Name = /home/tchapet/Post-Doc/ARTICLES-DOSSIERS-DES-ARTICLES-EN-REDACTION/NOUVELS-AXES-DE-RECHERCHE-A-REGARDER-URGEMMENT/ARTICLES-EN-REDACTIONS/ARTICLE_MVOTO/Paper2_JCIM/docking_rerun/ligands/17574.pdb
REMARK  8 active torsions:
REMARK  status: ('A' for Active; 'I' for Inactive)
REMARK    1  A    between atoms: C1_1  and  C2_2
REMARK    2  A    between atoms: N1_4  and  C3_5
REMARK    3  A    between atoms: N1_4  and  C23_33
REMARK    4  A    between atoms: C6_8  and  N2_11
REMARK    5  A    between atoms: N2_11  and  C9_12
REMARK    6  A    between atoms: C11_14  and  S1_29
REMARK    7  A    between atoms: C12_15  and  N3_28
REMARK    8  A    between atoms: S1_29  and  O6_32
REMARK                            x       y       z     vdW  Elec       q    Type
REMARK                         _______ _______ _______ _____ _____    ______ ____
ROOT
ATOM      1  C9  UNL     1       2.908  -3.680   1.856  0.00  0.00    +0.045 A 
ATOM      2  C10 UNL     1       3.223  -5.019   2.076  0.00  0.00    +0.055 A 
ATOM      3  C11 UNL     1       2.232  -5.958   2.356  0.00  0.00    +0.140 A 
ATOM      4  C12 UNL     1       0.886  -5.546   2.467  0.00  0.00    +0.064 A 
ATOM      5  C13 UNL     1       0.552  -4.172   2.294  0.00  0.00    +0.057 A 
ATOM      6  C14 UNL     1       1.557  -3.253   1.897  0.00  0.00    +0.056 A 
ATOM      7  C15 UNL     1       1.164  -1.871   1.493  0.00  0.00    +0.196 C 
ATOM      8  O2  UNL     1       1.996  -1.110   0.928  0.00  0.00    -0.287 OA
ATOM      9  C16 UNL     1      -0.223  -1.399   1.687  0.00  0.00    +0.033 A 
ATOM     10  C17 UNL     1      -0.587  -0.083   1.346  0.00  0.00    +0.012 A 
ATOM     11  C18 UNL     1      -1.898   0.359   1.529  0.00  0.00    +0.001 A 
ATOM     12  C19 UNL     1      -2.859  -0.504   2.055  0.00  0.00    +0.001 A 
ATOM     13  C20 UNL     1      -2.511  -1.813   2.399  0.00  0.00    +0.012 A 
ATOM     14  C21 UNL     1      -1.192  -2.271   2.216  0.00  0.00    +0.033 A 
ATOM     15  C22 UNL     1      -0.817  -3.653   2.589  0.00  0.00    +0.196 C 
ATOM     16  O3  UNL     1      -1.646  -4.356   3.227  0.00  0.00    -0.287 OA
ENDROOT
BRANCH   4  17
ATOM     17  N3  UNL     1      -0.140  -6.526   2.688  0.00  0.00    -0.356 N 
ATOM     18  H14 UNL     1       0.040  -7.395   3.235  0.00  0.00    +0.142 HD
ATOM     19  H15 UNL     1      -1.063  -6.451   2.207  0.00  0.00    +0.142 HD
ENDBRANCH   4  17
BRANCH   3  20
ATOM     20  S1  UNL     1       2.706  -7.654   2.544  0.00  0.00    +0.111 S 
ATOM     21  O4  UNL     1       2.909  -7.957   4.002  0.00  0.00    -0.142 OA
ATOM     22  O5  UNL     1       1.632  -8.542   1.981  0.00  0.00    -0.142 OA
BRANCH  20  23
ATOM     23  O6  UNL     1       4.140  -7.953   1.716  0.00  0.00    -0.250 OA
ATOM     24  H16 UNL     1       4.336  -8.910   1.882  0.00  0.00    +0.245 HD
ENDBRANCH  20  23
ENDBRANCH   3  20
BRANCH   1  25
ATOM     25  N2  UNL     1       3.989  -2.765   1.617  0.00  0.00    -0.314 N 
ATOM     26  H8  UNL     1       3.851  -1.772   1.912  0.00  0.00    +0.152 HD
BRANCH  25  30
ATOM     27  C3  UNL     1       7.430  -3.730  -0.703  0.00  0.00    +0.036 A 
ATOM     28  C4  UNL     1       7.547  -3.395   0.654  0.00  0.00    +0.025 A 
ATOM     29  C5  UNL     1       6.413  -3.076   1.405  0.00  0.00    +0.025 A 
ATOM     30  C6  UNL     1       5.141  -3.090   0.815  0.00  0.00    +0.031 A 
ATOM     31  C7  UNL     1       5.023  -3.421  -0.548  0.00  0.00    +0.025 A 
ATOM     32  C8  UNL     1       6.158  -3.742  -1.298  0.00  0.00    +0.025 A 
BRANCH  27  36
ATOM     33  C1  UNL     1      10.217  -5.846  -2.387  0.00  0.00    +0.109 C 
ATOM     34  C2  UNL     1       9.069  -5.436  -1.514  0.00  0.00    +0.216 C 
ATOM     35  O1  UNL     1       8.516  -6.315  -0.796  0.00  0.00    -0.276 OA
ATOM     36  N1  UNL     1       8.600  -4.070  -1.474  0.00  0.00    -0.275 N 
ATOM     37  C23 UNL     1       9.377  -2.998  -2.106  0.00  0.00    +0.138 C 
ENDBRANCH  27  36
ENDBRANCH  25  30
ENDBRANCH   1  25
TORSDOF 6
ENDMDL
