MODEL 1
REMARK minimizedAffinity -6.99093199
REMARK minimizedRMSD -1
REMARK  Name = /home/tchapet/Post-Doc/ARTICLES-DOSSIERS-DES-ARTICLES-EN-REDACTION/NOUVELS-AXES-DE-RECHERCHE-A-REGARDER-URGEMMENT/ARTICLES-EN-REDACTIONS/ARTICLE_MVOTO/Paper2_JCIM/docking_rerun/ligands/17574.pdb
REMARK  8 active torsions:
REMARK  status: ('A' for Active; 'I' for Inactive)
REMARK    1  A    between atoms: C1_1  and  C2_2
REMARK    2  A    between atoms: N1_4  and  C3_5
REMARK    3  A    between atoms: N1_4  and  C23_33
REMARK    4  A    between atoms: C6_8  and  N2_11
REMARK    5  A    between atoms: N2_11  and  C9_12
REMARK    6  A    between atoms: C11_14  and  S1_29
REMARK    7  A    between atoms: C12_15  and  N3_28
REMARK    8  A    between atoms: S1_29  and  O6_32
REMARK                            x       y       z     vdW  Elec       q    Type
REMARK                         _______ _______ _______ _____ _____    ______ ____
ROOT
ATOM      1  C9  UNL     1      19.628   0.241   7.465  0.00  0.00    +0.045 A 
ATOM      2  C10 UNL     1      18.880   0.722   6.392  0.00  0.00    +0.055 A 
ATOM      3  C11 UNL     1      17.637   0.177   6.076  0.00  0.00    +0.140 A 
ATOM      4  C12 UNL     1      17.138  -0.914   6.822  0.00  0.00    +0.064 A 
ATOM      5  C13 UNL     1      17.913  -1.450   7.891  0.00  0.00    +0.057 A 
ATOM      6  C14 UNL     1      19.120  -0.810   8.269  0.00  0.00    +0.056 A 
ATOM      7  C15 UNL     1      19.806  -1.229   9.527  0.00  0.00    +0.196 C 
ATOM      8  O2  UNL     1      20.748  -0.537  10.002  0.00  0.00    -0.287 OA
ATOM      9  C16 UNL     1      19.347  -2.422  10.269  0.00  0.00    +0.033 A 
ATOM     10  C17 UNL     1      20.018  -2.845  11.432  0.00  0.00    +0.012 A 
ATOM     11  C18 UNL     1      19.581  -3.972  12.131  0.00  0.00    +0.001 A 
ATOM     12  C19 UNL     1      18.475  -4.689  11.678  0.00  0.00    +0.001 A 
ATOM     13  C20 UNL     1      17.801  -4.281  10.524  0.00  0.00    +0.012 A 
ATOM     14  C21 UNL     1      18.230  -3.144   9.812  0.00  0.00    +0.033 A 
ATOM     15  C22 UNL     1      17.526  -2.715   8.584  0.00  0.00    +0.196 C 
ATOM     16  O3  UNL     1      16.648  -3.474   8.091  0.00  0.00    -0.287 OA
ENDROOT
BRANCH   4  17
ATOM     17  N3  UNL     1      15.828  -1.428   6.538  0.00  0.00    -0.356 N 
ATOM     18  H14 UNL     1      15.429  -1.409   5.575  0.00  0.00    +0.142 HD
ATOM     19  H15 UNL     1      15.194  -1.729   7.309  0.00  0.00    +0.142 HD
ENDBRANCH   4  17
BRANCH   3  20
ATOM     20  S1  UNL     1      16.713   0.897   4.748  0.00  0.00    +0.111 S 
ATOM     21  O4  UNL     1      17.413   2.139   4.269  0.00  0.00    -0.142 OA
ATOM     22  O5  UNL     1      16.596  -0.092   3.623  0.00  0.00    -0.142 OA
BRANCH  20  23
ATOM     23  O6  UNL     1      15.166   1.306   5.269  0.00  0.00    -0.250 OA
ATOM     24  H16 UNL     1      14.728   1.709   4.477  0.00  0.00    +0.245 HD
ENDBRANCH  20  23
ENDBRANCH   3  20
BRANCH   1  25
ATOM     25  N2  UNL     1      20.919   0.824   7.700  0.00  0.00    -0.314 N 
ATOM     26  H8  UNL     1      21.276   0.819   8.682  0.00  0.00    +0.152 HD
BRANCH  25  30
ATOM     27  C3  UNL     1      23.033   3.144   4.817  0.00  0.00    +0.036 A 
ATOM     28  C4  UNL     1      22.431   3.751   5.929  0.00  0.00    +0.025 A 
ATOM     29  C5  UNL     1      21.736   2.983   6.866  0.00  0.00    +0.025 A 
ATOM     30  C6  UNL     1      21.634   1.592   6.712  0.00  0.00    +0.031 A 
ATOM     31  C7  UNL     1      22.233   0.983   5.593  0.00  0.00    +0.025 A 
ATOM     32  C8  UNL     1      22.929   1.752   4.657  0.00  0.00    +0.025 A 
BRANCH  27  36
ATOM     33  C1  UNL     1      23.760   5.503   1.820  0.00  0.00    +0.109 C 
ATOM     34  C2  UNL     1      23.055   4.587   2.775  0.00  0.00    +0.216 C 
ATOM     35  O1  UNL     1      21.820   4.381   2.610  0.00  0.00    -0.276 OA
ATOM     36  N1  UNL     1      23.759   3.937   3.856  0.00  0.00    -0.275 N 
ATOM     37  C23 UNL     1      25.224   3.968   3.916  0.00  0.00    +0.138 C 
ENDBRANCH  27  36
ENDBRANCH  25  30
ENDBRANCH   1  25
TORSDOF 6
ENDMDL
MODEL 2
REMARK minimizedAffinity -6.92430544
REMARK minimizedRMSD -1
REMARK  Name = /home/tchapet/Post-Doc/ARTICLES-DOSSIERS-DES-ARTICLES-EN-REDACTION/NOUVELS-AXES-DE-RECHERCHE-A-REGARDER-URGEMMENT/ARTICLES-EN-REDACTIONS/ARTICLE_MVOTO/Paper2_JCIM/docking_rerun/ligands/17574.pdb
REMARK  8 active torsions:
REMARK  status: ('A' for Active; 'I' for Inactive)
REMARK    1  A    between atoms: C1_1  and  C2_2
REMARK    2  A    between atoms: N1_4  and  C3_5
REMARK    3  A    between atoms: N1_4  and  C23_33
REMARK    4  A    between atoms: C6_8  and  N2_11
REMARK    5  A    between atoms: N2_11  and  C9_12
REMARK    6  A    between atoms: C11_14  and  S1_29
REMARK    7  A    between atoms: C12_15  and  N3_28
REMARK    8  A    between atoms: S1_29  and  O6_32
REMARK                            x       y       z     vdW  Elec       q    Type
REMARK                         _______ _______ _______ _____ _____    ______ ____
ROOT
ATOM      1  C9  UNL     1      33.842   9.231  28.712  0.00  0.00    +0.045 A 
ATOM      2  C10 UNL     1      33.969  10.585  29.014  0.00  0.00    +0.055 A 
ATOM      3  C11 UNL     1      34.794  11.419  28.262  0.00  0.00    +0.140 A 
ATOM      4  C12 UNL     1      35.556  10.881  27.201  0.00  0.00    +0.064 A 
ATOM      5  C13 UNL     1      35.476   9.489  26.910  0.00  0.00    +0.057 A 
ATOM      6  C14 UNL     1      34.545   8.680  27.612  0.00  0.00    +0.056 A 
ATOM      7  C15 UNL     1      34.298   7.283  27.149  0.00  0.00    +0.196 C 
ATOM      8  O2  UNL     1      33.326   6.621  27.606  0.00  0.00    -0.287 OA
ATOM      9  C16 UNL     1      35.147   6.679  26.100  0.00  0.00    +0.033 A 
ATOM     10  C17 UNL     1      34.944   5.347  25.692  0.00  0.00    +0.012 A 
ATOM     11  C18 UNL     1      35.747   4.781  24.700  0.00  0.00    +0.001 A 
ATOM     12  C19 UNL     1      36.760   5.534  24.108  0.00  0.00    +0.001 A 
ATOM     13  C20 UNL     1      36.973   6.856  24.504  0.00  0.00    +0.012 A 
ATOM     14  C21 UNL     1      36.168   7.439  25.502  0.00  0.00    +0.033 A 
ATOM     15  C22 UNL     1      36.397   8.836  25.933  0.00  0.00    +0.196 C 
ATOM     16  O3  UNL     1      37.426   9.438  25.520  0.00  0.00    -0.287 OA
ENDROOT
BRANCH   4  17
ATOM     17  N3  UNL     1      36.353  11.754  26.386  0.00  0.00    -0.356 N 
ATOM     18  H14 UNL     1      36.792  12.617  26.774  0.00  0.00    +0.142 HD
ATOM     19  H15 UNL     1      36.417  11.611  25.355  0.00  0.00    +0.142 HD
ENDBRANCH   4  17
BRANCH   3  20
ATOM     20  S1  UNL     1      34.839  13.143  28.661  0.00  0.00    +0.111 S 
ATOM     21  O4  UNL     1      33.827  13.435  29.733  0.00  0.00    -0.142 OA
ATOM     22  O5  UNL     1      36.215  13.513  29.141  0.00  0.00    -0.142 OA
BRANCH  20  23
ATOM     23  O6  UNL     1      34.478  14.065  27.300  0.00  0.00    -0.250 OA
ATOM     24  H16 UNL     1      34.513  15.005  27.611  0.00  0.00    +0.245 HD
ENDBRANCH  20  23
ENDBRANCH   3  20
BRANCH   1  25
ATOM     25  N2  UNL     1      33.006   8.428  29.560  0.00  0.00    -0.314 N 
ATOM     26  H8  UNL     1      31.995   8.356  29.307  0.00  0.00    +0.152 HD
BRANCH  25  30
ATOM     27  C3  UNL     1      34.332   6.912  33.315  0.00  0.00    +0.036 A 
ATOM     28  C4  UNL     1      35.240   7.470  32.403  0.00  0.00    +0.025 A 
ATOM     29  C5  UNL     1      34.796   7.960  31.173  0.00  0.00    +0.025 A 
ATOM     30  C6  UNL     1      33.436   7.907  30.833  0.00  0.00    +0.031 A 
ATOM     31  C7  UNL     1      32.525   7.342  31.746  0.00  0.00    +0.025 A 
ATOM     32  C8  UNL     1      32.970   6.853  32.977  0.00  0.00    +0.025 A 
BRANCH  27  36
ATOM     33  C1  UNL     1      35.190   6.786  37.101  0.00  0.00    +0.109 C 
ATOM     34  C2  UNL     1      34.820   7.293  35.738  0.00  0.00    +0.216 C 
ATOM     35  O1  UNL     1      34.541   8.517  35.607  0.00  0.00    -0.276 OA
ATOM     36  N1  UNL     1      34.790   6.417  34.590  0.00  0.00    -0.275 N 
ATOM     37  C23 UNL     1      35.343   5.061  34.674  0.00  0.00    +0.138 C 
ENDBRANCH  27  36
ENDBRANCH  25  30
ENDBRANCH   1  25
TORSDOF 6
ENDMDL
MODEL 3
REMARK minimizedAffinity -6.91294432
REMARK minimizedRMSD -1
REMARK  Name = /home/tchapet/Post-Doc/ARTICLES-DOSSIERS-DES-ARTICLES-EN-REDACTION/NOUVELS-AXES-DE-RECHERCHE-A-REGARDER-URGEMMENT/ARTICLES-EN-REDACTIONS/ARTICLE_MVOTO/Paper2_JCIM/docking_rerun/ligands/17574.pdb
REMARK  8 active torsions:
REMARK  status: ('A' for Active; 'I' for Inactive)
REMARK    1  A    between atoms: C1_1  and  C2_2
REMARK    2  A    between atoms: N1_4  and  C3_5
REMARK    3  A    between atoms: N1_4  and  C23_33
REMARK    4  A    between atoms: C6_8  and  N2_11
REMARK    5  A    between atoms: N2_11  and  C9_12
REMARK    6  A    between atoms: C11_14  and  S1_29
REMARK    7  A    between atoms: C12_15  and  N3_28
REMARK    8  A    between atoms: S1_29  and  O6_32
REMARK                            x       y       z     vdW  Elec       q    Type
REMARK                         _______ _______ _______ _____ _____    ______ ____
ROOT
ATOM      1  C9  UNL     1       6.102  14.577  19.727  0.00  0.00    +0.045 A 
ATOM      2  C10 UNL     1       6.996  14.762  18.674  0.00  0.00    +0.055 A 
ATOM      3  C11 UNL     1       7.739  15.935  18.554  0.00  0.00    +0.140 A 
ATOM      4  C12 UNL     1       7.555  16.981  19.485  0.00  0.00    +0.064 A 
ATOM      5  C13 UNL     1       6.609  16.828  20.539  0.00  0.00    +0.057 A 
ATOM      6  C14 UNL     1       5.948  15.585  20.711  0.00  0.00    +0.056 A 
ATOM      7  C15 UNL     1       5.139  15.353  21.944  0.00  0.00    +0.196 C 
ATOM      8  O2  UNL     1       4.728  14.195  22.230  0.00  0.00    -0.287 OA
ATOM      9  C16 UNL     1       4.866  16.462  22.882  0.00  0.00    +0.033 A 
ATOM     10  C17 UNL     1       4.068  16.256  24.023  0.00  0.00    +0.012 A 
ATOM     11  C18 UNL     1       3.814  17.306  24.907  0.00  0.00    +0.001 A 
ATOM     12  C19 UNL     1       4.349  18.570  24.662  0.00  0.00    +0.001 A 
ATOM     13  C20 UNL     1       5.141  18.789  23.533  0.00  0.00    +0.012 A 
ATOM     14  C21 UNL     1       5.407  17.737  22.635  0.00  0.00    +0.033 A 
ATOM     15  C22 UNL     1       6.237  17.966  21.432  0.00  0.00    +0.196 C 
ATOM     16  O3  UNL     1       6.558  19.148  21.132  0.00  0.00    -0.287 OA
ENDROOT
BRANCH   4  17
ATOM     17  N3  UNL     1       8.370  18.159  19.399  0.00  0.00    -0.356 N 
ATOM     18  H14 UNL     1       8.719  18.519  18.484  0.00  0.00    +0.142 HD
ATOM     19  H15 UNL     1       8.733  18.622  20.260  0.00  0.00    +0.142 HD
ENDBRANCH   4  17
BRANCH   3  20
ATOM     20  S1  UNL     1       8.911  16.059  17.233  0.00  0.00    +0.111 S 
ATOM     21  O4  UNL     1       8.852  14.813  16.394  0.00  0.00    -0.142 OA
ATOM     22  O5  UNL     1       8.593  17.261  16.389  0.00  0.00    -0.142 OA
BRANCH  20  23
ATOM     23  O6  UNL     1      10.467  16.231  17.850  0.00  0.00    -0.250 OA
ATOM     24  H16 UNL     1      11.054  16.281  17.053  0.00  0.00    +0.245 HD
ENDBRANCH  20  23
ENDBRANCH   3  20
BRANCH   1  25
ATOM     25  N2  UNL     1       5.341  13.360  19.757  0.00  0.00    -0.314 N 
ATOM     26  H8  UNL     1       5.304  12.840  20.663  0.00  0.00    +0.152 HD
BRANCH  25  30
ATOM     27  C3  UNL     1       3.842  11.431  16.266  0.00  0.00    +0.036 A 
ATOM     28  C4  UNL     1       5.120  11.134  16.760  0.00  0.00    +0.025 A 
ATOM     29  C5  UNL     1       5.605  11.775  17.903  0.00  0.00    +0.025 A 
ATOM     30  C6  UNL     1       4.818  12.722  18.576  0.00  0.00    +0.031 A 
ATOM     31  C7  UNL     1       3.537  13.024  18.077  0.00  0.00    +0.025 A 
ATOM     32  C8  UNL     1       3.053  12.381  16.935  0.00  0.00    +0.025 A 
BRANCH  27  36
ATOM     33  C1  UNL     1       1.950   8.872  14.040  0.00  0.00    +0.109 C 
ATOM     34  C2  UNL     1       2.578   9.540  15.227  0.00  0.00    +0.216 C 
ATOM     35  O1  UNL     1       2.436   9.005  16.362  0.00  0.00    -0.276 OA
ATOM     36  N1  UNL     1       3.339  10.760  15.093  0.00  0.00    -0.275 N 
ATOM     37  C23 UNL     1       3.718  11.258  13.766  0.00  0.00    +0.138 C 
ENDBRANCH  27  36
ENDBRANCH  25  30
ENDBRANCH   1  25
TORSDOF 6
ENDMDL
MODEL 4
REMARK minimizedAffinity -6.84496641
REMARK minimizedRMSD -1
REMARK  Name = /home/tchapet/Post-Doc/ARTICLES-DOSSIERS-DES-ARTICLES-EN-REDACTION/NOUVELS-AXES-DE-RECHERCHE-A-REGARDER-URGEMMENT/ARTICLES-EN-REDACTIONS/ARTICLE_MVOTO/Paper2_JCIM/docking_rerun/ligands/17574.pdb
REMARK  8 active torsions:
REMARK  status: ('A' for Active; 'I' for Inactive)
REMARK    1  A    between atoms: C1_1  and  C2_2
REMARK    2  A    between atoms: N1_4  and  C3_5
REMARK    3  A    between atoms: N1_4  and  C23_33
REMARK    4  A    between atoms: C6_8  and  N2_11
REMARK    5  A    between atoms: N2_11  and  C9_12
REMARK    6  A    between atoms: C11_14  and  S1_29
REMARK    7  A    between atoms: C12_15  and  N3_28
REMARK    8  A    between atoms: S1_29  and  O6_32
REMARK                            x       y       z     vdW  Elec       q    Type
REMARK                         _______ _______ _______ _____ _____    ______ ____
ROOT
ATOM      1  C9  UNL     1       5.568  13.306  16.939  0.00  0.00    +0.045 A 
ATOM      2  C10 UNL     1       6.223  13.670  15.764  0.00  0.00    +0.055 A 
ATOM      3  C11 UNL     1       7.159  14.703  15.748  0.00  0.00    +0.140 A 
ATOM      4  C12 UNL     1       7.420  15.431  16.930  0.00  0.00    +0.064 A 
ATOM      5  C13 UNL     1       6.722  15.105  18.128  0.00  0.00    +0.057 A 
ATOM      6  C14 UNL     1       5.861  13.978  18.151  0.00  0.00    +0.056 A 
ATOM      7  C15 UNL     1       5.316  13.502  19.457  0.00  0.00    +0.196 C 
ATOM      8  O2  UNL     1       4.736  12.385  19.538  0.00  0.00    -0.287 OA
ATOM      9  C16 UNL     1       5.508  14.301  20.685  0.00  0.00    +0.033 A 
ATOM     10  C17 UNL     1       4.959  13.877  21.910  0.00  0.00    +0.012 A 
ATOM     11  C18 UNL     1       5.143  14.634  23.068  0.00  0.00    +0.001 A 
ATOM     12  C19 UNL     1       5.873  15.821  23.018  0.00  0.00    +0.001 A 
ATOM     13  C20 UNL     1       6.422  16.254  21.810  0.00  0.00    +0.012 A 
ATOM     14  C21 UNL     1       6.245  15.498  20.635  0.00  0.00    +0.033 A 
ATOM     15  C22 UNL     1       6.816  15.959  19.350  0.00  0.00    +0.196 C 
ATOM     16  O3  UNL     1       7.312  17.117  19.286  0.00  0.00    -0.287 OA
ENDROOT
BRANCH   4  17
ATOM     17  N3  UNL     1       8.432  16.449  16.927  0.00  0.00    -0.356 N 
ATOM     18  H14 UNL     1       8.639  17.015  16.076  0.00  0.00    +0.142 HD
ATOM     19  H15 UNL     1       9.070  16.571  17.744  0.00  0.00    +0.142 HD
ENDBRANCH   4  17
BRANCH   3  20
ATOM     20  S1  UNL     1       8.006  15.052  14.233  0.00  0.00    +0.111 S 
ATOM     21  O4  UNL     1       7.381  14.260  13.118  0.00  0.00    -0.142 OA
ATOM     22  O5  UNL     1       7.915  16.521  13.932  0.00  0.00    -0.142 OA
BRANCH  20  23
ATOM     23  O6  UNL     1       9.629  14.628  14.363  0.00  0.00    -0.250 OA
ATOM     24  H16 UNL     1      10.021  14.842  13.478  0.00  0.00    +0.245 HD
ENDBRANCH  20  23
ENDBRANCH   3  20
BRANCH   1  25
ATOM     25  N2  UNL     1       4.586  12.262  16.865  0.00  0.00    -0.314 N 
ATOM     26  H8  UNL     1       4.934  11.284  16.738  0.00  0.00    +0.152 HD
BRANCH  25  30
ATOM     27  C3  UNL     1       0.393  12.936  16.521  0.00  0.00    +0.036 A 
ATOM     28  C4  UNL     1       0.899  11.645  16.734  0.00  0.00    +0.025 A 
ATOM     29  C5  UNL     1       2.276  11.434  16.840  0.00  0.00    +0.025 A 
ATOM     30  C6  UNL     1       3.172  12.509  16.742  0.00  0.00    +0.031 A 
ATOM     31  C7  UNL     1       2.664  13.803  16.522  0.00  0.00    +0.025 A 
ATOM     32  C8  UNL     1       1.287  14.014  16.417  0.00  0.00    +0.025 A 
BRANCH  27  36
ATOM     33  C1  UNL     1      -3.251  13.838  17.516  0.00  0.00    +0.109 C 
ATOM     34  C2  UNL     1      -1.792  13.502  17.598  0.00  0.00    +0.216 C 
ATOM     35  O1  UNL     1      -1.235  13.517  18.731  0.00  0.00    -0.276 OA
ATOM     36  N1  UNL     1      -1.029  13.154  16.421  0.00  0.00    -0.275 N 
ATOM     37  C23 UNL     1      -1.706  12.894  15.146  0.00  0.00    +0.138 C 
ENDBRANCH  27  36
ENDBRANCH  25  30
ENDBRANCH   1  25
TORSDOF 6
ENDMDL
MODEL 5
REMARK minimizedAffinity -6.82984352
REMARK minimizedRMSD -1
REMARK  Name = /home/tchapet/Post-Doc/ARTICLES-DOSSIERS-DES-ARTICLES-EN-REDACTION/NOUVELS-AXES-DE-RECHERCHE-A-REGARDER-URGEMMENT/ARTICLES-EN-REDACTIONS/ARTICLE_MVOTO/Paper2_JCIM/docking_rerun/ligands/17574.pdb
REMARK  8 active torsions:
REMARK  status: ('A' for Active; 'I' for Inactive)
REMARK    1  A    between atoms: C1_1  and  C2_2
REMARK    2  A    between atoms: N1_4  and  C3_5
REMARK    3  A    between atoms: N1_4  and  C23_33
REMARK    4  A    between atoms: C6_8  and  N2_11
REMARK    5  A    between atoms: N2_11  and  C9_12
REMARK    6  A    between atoms: C11_14  and  S1_29
REMARK    7  A    between atoms: C12_15  and  N3_28
REMARK    8  A    between atoms: S1_29  and  O6_32
REMARK                            x       y       z     vdW  Elec       q    Type
REMARK                         _______ _______ _______ _____ _____    ______ ____
ROOT
ATOM      1  C9  UNL     1       6.599  14.046  16.822  0.00  0.00    +0.045 A 
ATOM      2  C10 UNL     1       5.781  13.091  16.221  0.00  0.00    +0.055 A 
ATOM      3  C11 UNL     1       4.716  12.514  16.911  0.00  0.00    +0.140 A 
ATOM      4  C12 UNL     1       4.483  12.864  18.260  0.00  0.00    +0.064 A 
ATOM      5  C13 UNL     1       5.339  13.801  18.904  0.00  0.00    +0.057 A 
ATOM      6  C14 UNL     1       6.345  14.462  18.152  0.00  0.00    +0.056 A 
ATOM      7  C15 UNL     1       7.083  15.605  18.766  0.00  0.00    +0.196 C 
ATOM      8  O2  UNL     1       7.815  16.347  18.056  0.00  0.00    -0.287 OA
ATOM      9  C16 UNL     1       6.912  15.925  20.199  0.00  0.00    +0.033 A 
ATOM     10  C17 UNL     1       7.639  16.975  20.790  0.00  0.00    +0.012 A 
ATOM     11  C18 UNL     1       7.474  17.275  22.144  0.00  0.00    +0.001 A 
ATOM     12  C19 UNL     1       6.587  16.531  22.921  0.00  0.00    +0.001 A 
ATOM     13  C20 UNL     1       5.861  15.485  22.347  0.00  0.00    +0.012 A 
ATOM     14  C21 UNL     1       6.016  15.175  20.982  0.00  0.00    +0.033 A 
ATOM     15  C22 UNL     1       5.257  14.061  20.373  0.00  0.00    +0.196 C 
ATOM     16  O3  UNL     1       4.603  13.288  21.125  0.00  0.00    -0.287 OA
ENDROOT
BRANCH   4  17
ATOM     17  N3  UNL     1       3.345  12.319  18.946  0.00  0.00    -0.356 N 
ATOM     18  H14 UNL     1       2.976  11.369  18.728  0.00  0.00    +0.142 HD
ATOM     19  H15 UNL     1       2.785  12.907  19.602  0.00  0.00    +0.142 HD
ENDBRANCH   4  17
BRANCH   3  20
ATOM     20  S1  UNL     1       3.676  11.368  16.052  0.00  0.00    +0.111 S 
ATOM     21  O4  UNL     1       2.262  11.879  16.052  0.00  0.00    -0.142 OA
ATOM     22  O5  UNL     1       4.163  11.208  14.639  0.00  0.00    -0.142 OA
BRANCH  20  23
ATOM     23  O6  UNL     1       3.715   9.865  16.809  0.00  0.00    -0.250 OA
ATOM     24  H16 UNL     1       3.104   9.295  16.277  0.00  0.00    +0.245 HD
ENDBRANCH  20  23
ENDBRANCH   3  20
BRANCH   1  25
ATOM     25  N2  UNL     1       7.701  14.562  16.060  0.00  0.00    -0.314 N 
ATOM     26  H8  UNL     1       8.647  14.529  16.504  0.00  0.00    +0.152 HD
BRANCH  25  30
ATOM     27  C3  UNL     1       7.195  16.790  12.464  0.00  0.00    +0.036 A 
ATOM     28  C4  UNL     1       6.405  17.055  13.592  0.00  0.00    +0.025 A 
ATOM     29  C5  UNL     1       6.575  16.315  14.765  0.00  0.00    +0.025 A 
ATOM     30  C6  UNL     1       7.542  15.301  14.834  0.00  0.00    +0.031 A 
ATOM     31  C7  UNL     1       8.332  15.032  13.700  0.00  0.00    +0.025 A 
ATOM     32  C8  UNL     1       8.161  15.772  12.528  0.00  0.00    +0.025 A 
BRANCH  27  36
ATOM     33  C1  UNL     1       5.647  18.135   9.165  0.00  0.00    +0.109 C 
ATOM     34  C2  UNL     1       5.916  17.286  10.373  0.00  0.00    +0.216 C 
ATOM     35  O1  UNL     1       5.152  16.308  10.602  0.00  0.00    -0.276 OA
ATOM     36  N1  UNL     1       7.025  17.561  11.257  0.00  0.00    -0.275 N 
ATOM     37  C23 UNL     1       8.057  18.531  10.877  0.00  0.00    +0.138 C 
ENDBRANCH  27  36
ENDBRANCH  25  30
ENDBRANCH   1  25
TORSDOF 6
ENDMDL
MODEL 6
REMARK minimizedAffinity -6.82082891
REMARK minimizedRMSD -1
REMARK  Name = /home/tchapet/Post-Doc/ARTICLES-DOSSIERS-DES-ARTICLES-EN-REDACTION/NOUVELS-AXES-DE-RECHERCHE-A-REGARDER-URGEMMENT/ARTICLES-EN-REDACTIONS/ARTICLE_MVOTO/Paper2_JCIM/docking_rerun/ligands/17574.pdb
REMARK  8 active torsions:
REMARK  status: ('A' for Active; 'I' for Inactive)
REMARK    1  A    between atoms: C1_1  and  C2_2
REMARK    2  A    between atoms: N1_4  and  C3_5
REMARK    3  A    between atoms: N1_4  and  C23_33
REMARK    4  A    between atoms: C6_8  and  N2_11
REMARK    5  A    between atoms: N2_11  and  C9_12
REMARK    6  A    between atoms: C11_14  and  S1_29
REMARK    7  A    between atoms: C12_15  and  N3_28
REMARK    8  A    between atoms: S1_29  and  O6_32
REMARK                            x       y       z     vdW  Elec       q    Type
REMARK                         _______ _______ _______ _____ _____    ______ ____
ROOT
ATOM      1  C9  UNL     1       5.747  12.348  16.771  0.00  0.00    +0.045 A 
ATOM      2  C10 UNL     1       4.757  11.371  16.695  0.00  0.00    +0.055 A 
ATOM      3  C11 UNL     1       4.037  11.162  15.520  0.00  0.00    +0.140 A 
ATOM      4  C12 UNL     1       4.276  11.982  14.395  0.00  0.00    +0.064 A 
ATOM      5  C13 UNL     1       5.250  13.018  14.472  0.00  0.00    +0.057 A 
ATOM      6  C14 UNL     1       6.051  13.140  15.636  0.00  0.00    +0.056 A 
ATOM      7  C15 UNL     1       7.220  14.069  15.625  0.00  0.00    +0.196 C 
ATOM      8  O2  UNL     1       8.073  14.033  16.553  0.00  0.00    -0.287 OA
ATOM      9  C16 UNL     1       7.431  14.994  14.492  0.00  0.00    +0.033 A 
ATOM     10  C17 UNL     1       8.508  15.901  14.497  0.00  0.00    +0.012 A 
ATOM     11  C18 UNL     1       8.704  16.773  13.425  0.00  0.00    +0.001 A 
ATOM     12  C19 UNL     1       7.830  16.753  12.339  0.00  0.00    +0.001 A 
ATOM     13  C20 UNL     1       6.756  15.859  12.321  0.00  0.00    +0.012 A 
ATOM     14  C21 UNL     1       6.549  14.972  13.396  0.00  0.00    +0.033 A 
ATOM     15  C22 UNL     1       5.407  14.032  13.386  0.00  0.00    +0.196 C 
ATOM     16  O3  UNL     1       4.529  14.152  12.489  0.00  0.00    -0.287 OA
ENDROOT
BRANCH   4  17
ATOM     17  N3  UNL     1       3.581  11.721  13.166  0.00  0.00    -0.356 N 
ATOM     18  H14 UNL     1       2.615  11.328  13.155  0.00  0.00    +0.142 HD
ATOM     19  H15 UNL     1       4.069  11.807  12.248  0.00  0.00    +0.142 HD
ENDBRANCH   4  17
BRANCH   3  20
ATOM     20  S1  UNL     1       2.851   9.848  15.479  0.00  0.00    +0.111 S 
ATOM     21  O4  UNL     1       1.465  10.427  15.435  0.00  0.00    -0.142 OA
ATOM     22  O5  UNL     1       3.088   8.994  14.266  0.00  0.00    -0.142 OA
BRANCH  20  23
ATOM     23  O6  UNL     1       3.000   8.887  16.852  0.00  0.00    -0.250 OA
ATOM     24  H16 UNL     1       2.300   8.192  16.755  0.00  0.00    +0.245 HD
ENDBRANCH  20  23
ENDBRANCH   3  20
BRANCH   1  25
ATOM     25  N2  UNL     1       6.415  12.532  18.029  0.00  0.00    -0.314 N 
ATOM     26  H8  UNL     1       7.201  11.882  18.254  0.00  0.00    +0.152 HD
BRANCH  25  30
ATOM     27  C3  UNL     1       4.985  15.166  21.058  0.00  0.00    +0.036 A 
ATOM     28  C4  UNL     1       5.700  15.657  19.956  0.00  0.00    +0.025 A 
ATOM     29  C5  UNL     1       6.168  14.785  18.970  0.00  0.00    +0.025 A 
ATOM     30  C6  UNL     1       5.927  13.406  19.066  0.00  0.00    +0.031 A 
ATOM     31  C7  UNL     1       5.215  12.913  20.175  0.00  0.00    +0.025 A 
ATOM     32  C8  UNL     1       4.746  13.786  21.159  0.00  0.00    +0.025 A 
BRANCH  27  36
ATOM     33  C1  UNL     1       4.952  17.715  23.988  0.00  0.00    +0.109 C 
ATOM     34  C2  UNL     1       5.413  16.692  22.993  0.00  0.00    +0.216 C 
ATOM     35  O1  UNL     1       6.634  16.372  22.981  0.00  0.00    -0.276 OA
ATOM     36  N1  UNL     1       4.493  16.069  22.069  0.00  0.00    -0.275 N 
ATOM     37  C23 UNL     1       3.046  16.243  22.229  0.00  0.00    +0.138 C 
ENDBRANCH  27  36
ENDBRANCH  25  30
ENDBRANCH   1  25
TORSDOF 6
ENDMDL
MODEL 7
REMARK minimizedAffinity -6.8206954
REMARK minimizedRMSD -1
REMARK  Name = /home/tchapet/Post-Doc/ARTICLES-DOSSIERS-DES-ARTICLES-EN-REDACTION/NOUVELS-AXES-DE-RECHERCHE-A-REGARDER-URGEMMENT/ARTICLES-EN-REDACTIONS/ARTICLE_MVOTO/Paper2_JCIM/docking_rerun/ligands/17574.pdb
REMARK  8 active torsions:
REMARK  status: ('A' for Active; 'I' for Inactive)
REMARK    1  A    between atoms: C1_1  and  C2_2
REMARK    2  A    between atoms: N1_4  and  C3_5
REMARK    3  A    between atoms: N1_4  and  C23_33
REMARK    4  A    between atoms: C6_8  and  N2_11
REMARK    5  A    between atoms: N2_11  and  C9_12
REMARK    6  A    between atoms: C11_14  and  S1_29
REMARK    7  A    between atoms: C12_15  and  N3_28
REMARK    8  A    between atoms: S1_29  and  O6_32
REMARK                            x       y       z     vdW  Elec       q    Type
REMARK                         _______ _______ _______ _____ _____    ______ ____
ROOT
ATOM      1  C9  UNL     1       5.499  15.001  16.800  0.00  0.00    +0.045 A 
ATOM      2  C10 UNL     1       6.159  15.024  15.574  0.00  0.00    +0.055 A 
ATOM      3  C11 UNL     1       7.478  15.463  15.471  0.00  0.00    +0.140 A 
ATOM      4  C12 UNL     1       8.149  15.941  16.619  0.00  0.00    +0.064 A 
ATOM      5  C13 UNL     1       7.472  15.971  17.871  0.00  0.00    +0.057 A 
ATOM      6  C14 UNL     1       6.172  15.413  17.977  0.00  0.00    +0.056 A 
ATOM      7  C15 UNL     1       5.561  15.236  19.327  0.00  0.00    +0.196 C 
ATOM      8  O2  UNL     1       4.515  14.546  19.469  0.00  0.00    -0.287 OA
ATOM      9  C16 UNL     1       6.211  15.808  20.525  0.00  0.00    +0.033 A 
ATOM     10  C17 UNL     1       5.616  15.679  21.794  0.00  0.00    +0.012 A 
ATOM     11  C18 UNL     1       6.234  16.220  22.923  0.00  0.00    +0.001 A 
ATOM     12  C19 UNL     1       7.447  16.895  22.800  0.00  0.00    +0.001 A 
ATOM     13  C20 UNL     1       8.048  17.032  21.546  0.00  0.00    +0.012 A 
ATOM     14  C21 UNL     1       7.436  16.488  20.400  0.00  0.00    +0.033 A 
ATOM     15  C22 UNL     1       8.063  16.640  19.068  0.00  0.00    +0.196 C 
ATOM     16  O3  UNL     1       9.059  17.405  18.949  0.00  0.00    -0.287 OA
ENDROOT
BRANCH   4  17
ATOM     17  N3  UNL     1       9.529  16.329  16.523  0.00  0.00    -0.356 N 
ATOM     18  H14 UNL     1       9.923  16.740  15.650  0.00  0.00    +0.142 HD
ATOM     19  H15 UNL     1      10.202  16.102  17.287  0.00  0.00    +0.142 HD
ENDBRANCH   4  17
BRANCH   3  20
ATOM     20  S1  UNL     1       8.273  15.386  13.891  0.00  0.00    +0.111 S 
ATOM     21  O4  UNL     1       7.305  14.853  12.871  0.00  0.00    -0.142 OA
ATOM     22  O5  UNL     1       8.733  16.760  13.492  0.00  0.00    -0.142 OA
BRANCH  20  23
ATOM     23  O6  UNL     1       9.611  14.369  13.962  0.00  0.00    -0.250 OA
ATOM     24  H16 UNL     1       9.985  14.373  13.044  0.00  0.00    +0.245 HD
ENDBRANCH  20  23
ENDBRANCH   3  20
BRANCH   1  25
ATOM     25  N2  UNL     1       4.127  14.576  16.817  0.00  0.00    -0.314 N 
ATOM     26  H8  UNL     1       3.446  15.175  17.336  0.00  0.00    +0.152 HD
BRANCH  25  30
ATOM     27  C3  UNL     1       2.870  10.729  15.484  0.00  0.00    +0.036 A 
ATOM     28  C4  UNL     1       3.912  10.864  16.413  0.00  0.00    +0.025 A 
ATOM     29  C5  UNL     1       4.320  12.130  16.840  0.00  0.00    +0.025 A 
ATOM     30  C6  UNL     1       3.691  13.285  16.351  0.00  0.00    +0.031 A 
ATOM     31  C7  UNL     1       2.649  13.149  15.414  0.00  0.00    +0.025 A 
ATOM     32  C8  UNL     1       2.241  11.883  14.988  0.00  0.00    +0.025 A 
BRANCH  27  36
ATOM     33  C1  UNL     1       0.836   7.428  15.267  0.00  0.00    +0.109 C 
ATOM     34  C2  UNL     1       1.378   8.740  15.751  0.00  0.00    +0.216 C 
ATOM     35  O1  UNL     1       0.888   9.244  16.799  0.00  0.00    -0.276 OA
ATOM     36  N1  UNL     1       2.443   9.421  15.052  0.00  0.00    -0.275 N 
ATOM     37  C23 UNL     1       3.186   8.743  13.984  0.00  0.00    +0.138 C 
ENDBRANCH  27  36
ENDBRANCH  25  30
ENDBRANCH   1  25
TORSDOF 6
ENDMDL
MODEL 8
REMARK minimizedAffinity -6.78995657
REMARK minimizedRMSD -1
REMARK  Name = /home/tchapet/Post-Doc/ARTICLES-DOSSIERS-DES-ARTICLES-EN-REDACTION/NOUVELS-AXES-DE-RECHERCHE-A-REGARDER-URGEMMENT/ARTICLES-EN-REDACTIONS/ARTICLE_MVOTO/Paper2_JCIM/docking_rerun/ligands/17574.pdb
REMARK  8 active torsions:
REMARK  status: ('A' for Active; 'I' for Inactive)
REMARK    1  A    between atoms: C1_1  and  C2_2
REMARK    2  A    between atoms: N1_4  and  C3_5
REMARK    3  A    between atoms: N1_4  and  C23_33
REMARK    4  A    between atoms: C6_8  and  N2_11
REMARK    5  A    between atoms: N2_11  and  C9_12
REMARK    6  A    between atoms: C11_14  and  S1_29
REMARK    7  A    between atoms: C12_15  and  N3_28
REMARK    8  A    between atoms: S1_29  and  O6_32
REMARK                            x       y       z     vdW  Elec       q    Type
REMARK                         _______ _______ _______ _____ _____    ______ ____
ROOT
ATOM      1  C9  UNL     1      17.691   0.574   6.506  0.00  0.00    +0.045 A 
ATOM      2  C10 UNL     1      18.651   1.498   6.099  0.00  0.00    +0.055 A 
ATOM      3  C11 UNL     1      19.934   1.495   6.644  0.00  0.00    +0.140 A 
ATOM      4  C12 UNL     1      20.262   0.572   7.661  0.00  0.00    +0.064 A 
ATOM      5  C13 UNL     1      19.277  -0.347   8.124  0.00  0.00    +0.057 A 
ATOM      6  C14 UNL     1      18.016  -0.404   7.478  0.00  0.00    +0.056 A 
ATOM      7  C15 UNL     1      17.077  -1.517   7.808  0.00  0.00    +0.196 C 
ATOM      8  O2  UNL     1      16.055  -1.721   7.098  0.00  0.00    -0.287 OA
ATOM      9  C16 UNL     1      17.367  -2.436   8.929  0.00  0.00    +0.033 A 
ATOM     10  C17 UNL     1      16.463  -3.460   9.269  0.00  0.00    +0.012 A 
ATOM     11  C18 UNL     1      16.742  -4.326  10.328  0.00  0.00    +0.001 A 
ATOM     12  C19 UNL     1      17.921  -4.181  11.058  0.00  0.00    +0.001 A 
ATOM     13  C20 UNL     1      18.825  -3.168  10.732  0.00  0.00    +0.012 A 
ATOM     14  C21 UNL     1      18.557  -2.289   9.664  0.00  0.00    +0.033 A 
ATOM     15  C22 UNL     1      19.508  -1.209   9.322  0.00  0.00    +0.196 C 
ATOM     16  O3  UNL     1      20.472  -0.979  10.101  0.00  0.00    -0.287 OA
ENDROOT
BRANCH   4  17
ATOM     17  N3  UNL     1      21.603   0.527   8.172  0.00  0.00    -0.356 N 
ATOM     18  H14 UNL     1      22.200   1.381   8.223  0.00  0.00    +0.142 HD
ATOM     19  H15 UNL     1      22.058  -0.384   8.398  0.00  0.00    +0.142 HD
ENDBRANCH   4  17
BRANCH   3  20
ATOM     20  S1  UNL     1      21.120   2.650   6.015  0.00  0.00    +0.111 S 
ATOM     21  O4  UNL     1      22.500   2.069   6.144  0.00  0.00    -0.142 OA
ATOM     22  O5  UNL     1      20.820   2.944   4.572  0.00  0.00    -0.142 OA
BRANCH  20  23
ATOM     23  O6  UNL     1      21.048   4.089   6.885  0.00  0.00    -0.250 OA
ATOM     24  H16 UNL     1      21.744   4.667   6.480  0.00  0.00    +0.245 HD
ENDBRANCH  20  23
ENDBRANCH   3  20
BRANCH   1  25
ATOM     25  N2  UNL     1      16.379   0.669   5.930  0.00  0.00    -0.314 N 
ATOM     26  H8  UNL     1      15.565   0.639   6.584  0.00  0.00    +0.152 HD
BRANCH  25  30
ATOM     27  C3  UNL     1      15.606   0.483   1.743  0.00  0.00    +0.036 A 
ATOM     28  C4  UNL     1      15.024   1.480   2.539  0.00  0.00    +0.025 A 
ATOM     29  C5  UNL     1      15.280   1.530   3.912  0.00  0.00    +0.025 A 
ATOM     30  C6  UNL     1      16.127   0.587   4.513  0.00  0.00    +0.031 A 
ATOM     31  C7  UNL     1      16.707  -0.417   3.716  0.00  0.00    +0.025 A 
ATOM     32  C8  UNL     1      16.451  -0.466   2.343  0.00  0.00    +0.025 A 
BRANCH  27  36
ATOM     33  C1  UNL     1      16.040   1.046  -2.075  0.00  0.00    +0.109 C 
ATOM     34  C2  UNL     1      16.212   1.153  -0.589  0.00  0.00    +0.216 C 
ATOM     35  O1  UNL     1      17.129   1.896  -0.142  0.00  0.00    -0.276 OA
ATOM     36  N1  UNL     1      15.350   0.439   0.325  0.00  0.00    -0.275 N 
ATOM     37  C23 UNL     1      14.137  -0.226  -0.163  0.00  0.00    +0.138 C 
ENDBRANCH  27  36
ENDBRANCH  25  30
ENDBRANCH   1  25
TORSDOF 6
ENDMDL
MODEL 9
REMARK minimizedAffinity -6.7856493
REMARK minimizedRMSD -1
REMARK  Name = /home/tchapet/Post-Doc/ARTICLES-DOSSIERS-DES-ARTICLES-EN-REDACTION/NOUVELS-AXES-DE-RECHERCHE-A-REGARDER-URGEMMENT/ARTICLES-EN-REDACTIONS/ARTICLE_MVOTO/Paper2_JCIM/docking_rerun/ligands/17574.pdb
REMARK  8 active torsions:
REMARK  status: ('A' for Active; 'I' for Inactive)
REMARK    1  A    between atoms: C1_1  and  C2_2
REMARK    2  A    between atoms: N1_4  and  C3_5
REMARK    3  A    between atoms: N1_4  and  C23_33
REMARK    4  A    between atoms: C6_8  and  N2_11
REMARK    5  A    between atoms: N2_11  and  C9_12
REMARK    6  A    between atoms: C11_14  and  S1_29
REMARK    7  A    between atoms: C12_15  and  N3_28
REMARK    8  A    between atoms: S1_29  and  O6_32
REMARK                            x       y       z     vdW  Elec       q    Type
REMARK                         _______ _______ _______ _____ _____    ______ ____
ROOT
ATOM      1  C9  UNL     1       6.684  13.636  16.761  0.00  0.00    +0.045 A 
ATOM      2  C10 UNL     1       7.271  14.260  15.662  0.00  0.00    +0.055 A 
ATOM      3  C11 UNL     1       7.665  15.596  15.715  0.00  0.00    +0.140 A 
ATOM      4  C12 UNL     1       7.428  16.352  16.884  0.00  0.00    +0.064 A 
ATOM      5  C13 UNL     1       6.784  15.743  17.999  0.00  0.00    +0.057 A 
ATOM      6  C14 UNL     1       6.495  14.355  17.967  0.00  0.00    +0.056 A 
ATOM      7  C15 UNL     1       6.037  13.676  19.215  0.00  0.00    +0.196 C 
ATOM      8  O2  UNL     1       5.987  12.417  19.276  0.00  0.00    -0.287 OA
ATOM      9  C16 UNL     1       5.701  14.466  20.419  0.00  0.00    +0.033 A 
ATOM     10  C17 UNL     1       5.228  13.832  21.583  0.00  0.00    +0.012 A 
ATOM     11  C18 UNL     1       4.913  14.581  22.718  0.00  0.00    +0.001 A 
ATOM     12  C19 UNL     1       5.063  15.967  22.704  0.00  0.00    +0.001 A 
ATOM     13  C20 UNL     1       5.529  16.609  21.554  0.00  0.00    +0.012 A 
ATOM     14  C21 UNL     1       5.853  15.864  20.404  0.00  0.00    +0.033 A 
ATOM     15  C22 UNL     1       6.337  16.541  19.181  0.00  0.00    +0.196 C 
ATOM     16  O3  UNL     1       6.293  17.799  19.125  0.00  0.00    -0.287 OA
ENDROOT
BRANCH   4  17
ATOM     17  N3  UNL     1       7.897  17.707  16.960  0.00  0.00    -0.356 N 
ATOM     18  H14 UNL     1       7.953  18.316  16.115  0.00  0.00    +0.142 HD
ATOM     19  H15 UNL     1       8.305  18.083  17.843  0.00  0.00    +0.142 HD
ENDBRANCH   4  17
BRANCH   3  20
ATOM     20  S1  UNL     1       8.476  16.292  14.304  0.00  0.00    +0.111 S 
ATOM     21  O4  UNL     1       8.546  15.264  13.209  0.00  0.00    -0.142 OA
ATOM     22  O5  UNL     1       7.713  17.496  13.828  0.00  0.00    -0.142 OA
BRANCH  20  23
ATOM     23  O6  UNL     1      10.039  16.770  14.707  0.00  0.00    -0.250 OA
ATOM     24  H16 UNL     1      10.420  17.133  13.867  0.00  0.00    +0.245 HD
ENDBRANCH  20  23
ENDBRANCH   3  20
BRANCH   1  25
ATOM     25  N2  UNL     1       6.264  12.271  16.614  0.00  0.00    -0.314 N 
ATOM     26  H8  UNL     1       6.979  11.528  16.786  0.00  0.00    +0.152 HD
BRANCH  25  30
ATOM     27  C3  UNL     1       2.548  11.100  14.889  0.00  0.00    +0.036 A 
ATOM     28  C4  UNL     1       3.761  10.818  14.245  0.00  0.00    +0.025 A 
ATOM     29  C5  UNL     1       4.974  11.210  14.816  0.00  0.00    +0.025 A 
ATOM     30  C6  UNL     1       4.997  11.887  16.045  0.00  0.00    +0.031 A 
ATOM     31  C7  UNL     1       3.779  12.176  16.688  0.00  0.00    +0.025 A 
ATOM     32  C8  UNL     1       2.567  11.782  16.117  0.00  0.00    +0.025 A 
BRANCH  27  36
ATOM     33  C1  UNL     1      -0.676   9.042  14.217  0.00  0.00    +0.109 C 
ATOM     34  C2  UNL     1       0.674   9.453  14.726  0.00  0.00    +0.216 C 
ATOM     35  O1  UNL     1       1.270   8.688  15.534  0.00  0.00    -0.276 OA
ATOM     36  N1  UNL     1       1.297  10.686  14.303  0.00  0.00    -0.275 N 
ATOM     37  C23 UNL     1       0.738  11.459  13.189  0.00  0.00    +0.138 C 
ENDBRANCH  27  36
ENDBRANCH  25  30
ENDBRANCH   1  25
TORSDOF 6
ENDMDL
