MODEL 1
REMARK minimizedAffinity -7.91502619
REMARK minimizedRMSD -1
REMARK  Name = /home/tchapet/Post-Doc/ARTICLES-DOSSIERS-DES-ARTICLES-EN-REDACTION/NOUVELS-AXES-DE-RECHERCHE-A-REGARDER-URGEMMENT/ARTICLES-EN-REDACTIONS/ARTICLE_MVOTO/Paper2_JCIM/docking_rerun/ligands/17574.pdb
REMARK  8 active torsions:
REMARK  status: ('A' for Active; 'I' for Inactive)
REMARK    1  A    between atoms: C1_1  and  C2_2
REMARK    2  A    between atoms: N1_4  and  C3_5
REMARK    3  A    between atoms: N1_4  and  C23_33
REMARK    4  A    between atoms: C6_8  and  N2_11
REMARK    5  A    between atoms: N2_11  and  C9_12
REMARK    6  A    between atoms: C11_14  and  S1_29
REMARK    7  A    between atoms: C12_15  and  N3_28
REMARK    8  A    between atoms: S1_29  and  O6_32
REMARK                            x       y       z     vdW  Elec       q    Type
REMARK                         _______ _______ _______ _____ _____    ______ ____
ROOT
ATOM      1  C9  UNL     1     -21.598 -30.976   7.224  0.00  0.00    +0.045 A 
ATOM      2  C10 UNL     1     -22.861 -30.738   7.765  0.00  0.00    +0.055 A 
ATOM      3  C11 UNL     1     -23.789 -29.934   7.106  0.00  0.00    +0.140 A 
ATOM      4  C12 UNL     1     -23.436 -29.307   5.890  0.00  0.00    +0.064 A 
ATOM      5  C13 UNL     1     -22.133 -29.499   5.349  0.00  0.00    +0.057 A 
ATOM      6  C14 UNL     1     -21.244 -30.411   5.974  0.00  0.00    +0.056 A 
ATOM      7  C15 UNL     1     -19.976 -30.785   5.282  0.00  0.00    +0.196 C 
ATOM      8  O2  UNL     1     -19.280 -31.750   5.700  0.00  0.00    -0.287 OA
ATOM      9  C16 UNL     1     -19.553 -30.074   4.057  0.00  0.00    +0.033 A 
ATOM     10  C17 UNL     1     -18.337 -30.395   3.425  0.00  0.00    +0.012 A 
ATOM     11  C18 UNL     1     -17.941 -29.722   2.267  0.00  0.00    +0.001 A 
ATOM     12  C19 UNL     1     -18.751 -28.723   1.729  0.00  0.00    +0.001 A 
ATOM     13  C20 UNL     1     -19.959 -28.393   2.347  0.00  0.00    +0.012 A 
ATOM     14  C21 UNL     1     -20.371 -29.066   3.514  0.00  0.00    +0.033 A 
ATOM     15  C22 UNL     1     -21.645 -28.713   4.177  0.00  0.00    +0.196 C 
ATOM     16  O3  UNL     1     -22.271 -27.691   3.785  0.00  0.00    -0.287 OA
ENDROOT
BRANCH   4  17
ATOM     17  N3  UNL     1     -24.417 -28.535   5.180  0.00  0.00    -0.356 N 
ATOM     18  H14 UNL     1     -25.167 -28.010   5.678  0.00  0.00    +0.142 HD
ATOM     19  H15 UNL     1     -24.476 -28.574   4.140  0.00  0.00    +0.142 HD
ENDBRANCH   4  17
BRANCH   3  20
ATOM     20  S1  UNL     1     -25.399 -29.746   7.819  0.00  0.00    +0.111 S 
ATOM     21  O4  UNL     1     -25.672 -28.288   8.057  0.00  0.00    -0.142 OA
ATOM     22  O5  UNL     1     -26.431 -30.316   6.887  0.00  0.00    -0.142 OA
BRANCH  20  23
ATOM     23  O6  UNL     1     -25.485 -30.567   9.285  0.00  0.00    -0.250 OA
ATOM     24  H16 UNL     1     -26.404 -30.401   9.617  0.00  0.00    +0.245 HD
ENDBRANCH  20  23
ENDBRANCH   3  20
BRANCH   1  25
ATOM     25  N2  UNL     1     -20.682 -31.779   7.984  0.00  0.00    -0.314 N 
ATOM     26  H8  UNL     1     -20.386 -32.691   7.569  0.00  0.00    +0.152 HD
BRANCH  25  30
ATOM     27  C3  UNL     1     -19.604 -31.004  12.033  0.00  0.00    +0.036 A 
ATOM     28  C4  UNL     1     -19.396 -32.269  11.462  0.00  0.00    +0.025 A 
ATOM     29  C5  UNL     1     -19.757 -32.514  10.135  0.00  0.00    +0.025 A 
ATOM     30  C6  UNL     1     -20.328 -31.499   9.353  0.00  0.00    +0.031 A 
ATOM     31  C7  UNL     1     -20.541 -30.232   9.928  0.00  0.00    +0.025 A 
ATOM     32  C8  UNL     1     -20.178 -29.987  11.254  0.00  0.00    +0.025 A 
BRANCH  27  36
ATOM     33  C1  UNL     1     -17.529 -29.814  15.093  0.00  0.00    +0.109 C 
ATOM     34  C2  UNL     1     -17.922 -30.189  13.695  0.00  0.00    +0.216 C 
ATOM     35  O1  UNL     1     -17.084 -30.015  12.767  0.00  0.00    -0.276 OA
ATOM     36  N1  UNL     1     -19.220 -30.750  13.400  0.00  0.00    -0.275 N 
ATOM     37  C23 UNL     1     -20.107 -31.184  14.485  0.00  0.00    +0.138 C 
ENDBRANCH  27  36
ENDBRANCH  25  30
ENDBRANCH   1  25
TORSDOF 6
ENDMDL
MODEL 2
REMARK minimizedAffinity -7.4688096
REMARK minimizedRMSD -1
REMARK  Name = /home/tchapet/Post-Doc/ARTICLES-DOSSIERS-DES-ARTICLES-EN-REDACTION/NOUVELS-AXES-DE-RECHERCHE-A-REGARDER-URGEMMENT/ARTICLES-EN-REDACTIONS/ARTICLE_MVOTO/Paper2_JCIM/docking_rerun/ligands/17574.pdb
REMARK  8 active torsions:
REMARK  status: ('A' for Active; 'I' for Inactive)
REMARK    1  A    between atoms: C1_1  and  C2_2
REMARK    2  A    between atoms: N1_4  and  C3_5
REMARK    3  A    between atoms: N1_4  and  C23_33
REMARK    4  A    between atoms: C6_8  and  N2_11
REMARK    5  A    between atoms: N2_11  and  C9_12
REMARK    6  A    between atoms: C11_14  and  S1_29
REMARK    7  A    between atoms: C12_15  and  N3_28
REMARK    8  A    between atoms: S1_29  and  O6_32
REMARK                            x       y       z     vdW  Elec       q    Type
REMARK                         _______ _______ _______ _____ _____    ______ ____
ROOT
ATOM      1  C9  UNL     1      -0.431  -9.063   3.382  0.00  0.00    +0.045 A 
ATOM      2  C10 UNL     1      -0.278  -8.972   2.000  0.00  0.00    +0.055 A 
ATOM      3  C11 UNL     1      -0.361 -10.101   1.188  0.00  0.00    +0.140 A 
ATOM      4  C12 UNL     1      -0.557 -11.372   1.771  0.00  0.00    +0.064 A 
ATOM      5  C13 UNL     1      -0.665 -11.490   3.186  0.00  0.00    +0.057 A 
ATOM      6  C14 UNL     1      -0.693 -10.318   3.985  0.00  0.00    +0.056 A 
ATOM      7  C15 UNL     1      -1.038 -10.429   5.433  0.00  0.00    +0.196 C 
ATOM      8  O2  UNL     1      -1.287  -9.396   6.112  0.00  0.00    -0.287 OA
ATOM      9  C16 UNL     1      -1.158 -11.755   6.075  0.00  0.00    +0.033 A 
ATOM     10  C17 UNL     1      -1.441 -11.863   7.450  0.00  0.00    +0.012 A 
ATOM     11  C18 UNL     1      -1.555 -13.117   8.053  0.00  0.00    +0.001 A 
ATOM     12  C19 UNL     1      -1.387 -14.275   7.294  0.00  0.00    +0.001 A 
ATOM     13  C20 UNL     1      -1.104 -14.182   5.929  0.00  0.00    +0.012 A 
ATOM     14  C21 UNL     1      -0.989 -12.922   5.309  0.00  0.00    +0.033 A 
ATOM     15  C22 UNL     1      -0.679 -12.820   3.866  0.00  0.00    +0.196 C 
ATOM     16  O3  UNL     1      -0.351 -13.863   3.239  0.00  0.00    -0.287 OA
ENDROOT
BRANCH   4  17
ATOM     17  N3  UNL     1      -0.710 -12.524   0.928  0.00  0.00    -0.356 N 
ATOM     18  H14 UNL     1      -0.229 -12.597   0.006  0.00  0.00    +0.142 HD
ATOM     19  H15 UNL     1      -1.401 -13.270   1.162  0.00  0.00    +0.142 HD
ENDBRANCH   4  17
BRANCH   3  20
ATOM     20  S1  UNL     1      -0.237  -9.890  -0.566  0.00  0.00    +0.111 S 
ATOM     21  O4  UNL     1       0.856 -10.774  -1.099  0.00  0.00    -0.142 OA
ATOM     22  O5  UNL     1      -1.546 -10.249  -1.210  0.00  0.00    -0.142 OA
BRANCH  20  23
ATOM     23  O6  UNL     1       0.125  -8.289  -0.936  0.00  0.00    -0.250 OA
ATOM     24  H16 UNL     1       0.188  -8.263  -1.924  0.00  0.00    +0.245 HD
ENDBRANCH  20  23
ENDBRANCH   3  20
BRANCH   1  25
ATOM     25  N2  UNL     1      -0.288  -7.861   4.155  0.00  0.00    -0.314 N 
ATOM     26  H8  UNL     1      -1.090  -7.585   4.765  0.00  0.00    +0.152 HD
BRANCH  25  30
ATOM     27  C3  UNL     1       2.861  -5.042   3.611  0.00  0.00    +0.036 A 
ATOM     28  C4  UNL     1       1.521  -4.669   3.429  0.00  0.00    +0.025 A 
ATOM     29  C5  UNL     1       0.496  -5.602   3.604  0.00  0.00    +0.025 A 
ATOM     30  C6  UNL     1       0.791  -6.924   3.972  0.00  0.00    +0.031 A 
ATOM     31  C7  UNL     1       2.136  -7.299   4.149  0.00  0.00    +0.025 A 
ATOM     32  C8  UNL     1       3.160  -6.365   3.974  0.00  0.00    +0.025 A 
BRANCH  27  36
ATOM     33  C1  UNL     1       5.788  -2.630   4.446  0.00  0.00    +0.109 C 
ATOM     34  C2  UNL     1       4.617  -3.555   4.592  0.00  0.00    +0.216 C 
ATOM     35  O1  UNL     1       4.239  -3.870   5.754  0.00  0.00    -0.276 OA
ATOM     36  N1  UNL     1       3.917  -4.075   3.439  0.00  0.00    -0.275 N 
ATOM     37  C23 UNL     1       4.181  -3.534   2.102  0.00  0.00    +0.138 C 
ENDBRANCH  27  36
ENDBRANCH  25  30
ENDBRANCH   1  25
TORSDOF 6
ENDMDL
MODEL 3
REMARK minimizedAffinity -7.44070292
REMARK minimizedRMSD -1
REMARK  Name = /home/tchapet/Post-Doc/ARTICLES-DOSSIERS-DES-ARTICLES-EN-REDACTION/NOUVELS-AXES-DE-RECHERCHE-A-REGARDER-URGEMMENT/ARTICLES-EN-REDACTIONS/ARTICLE_MVOTO/Paper2_JCIM/docking_rerun/ligands/17574.pdb
REMARK  8 active torsions:
REMARK  status: ('A' for Active; 'I' for Inactive)
REMARK    1  A    between atoms: C1_1  and  C2_2
REMARK    2  A    between atoms: N1_4  and  C3_5
REMARK    3  A    between atoms: N1_4  and  C23_33
REMARK    4  A    between atoms: C6_8  and  N2_11
REMARK    5  A    between atoms: N2_11  and  C9_12
REMARK    6  A    between atoms: C11_14  and  S1_29
REMARK    7  A    between atoms: C12_15  and  N3_28
REMARK    8  A    between atoms: S1_29  and  O6_32
REMARK                            x       y       z     vdW  Elec       q    Type
REMARK                         _______ _______ _______ _____ _____    ______ ____
ROOT
ATOM      1  C9  UNL     1      -0.788  -9.523   3.530  0.00  0.00    +0.045 A 
ATOM      2  C10 UNL     1      -0.605  -9.439   2.151  0.00  0.00    +0.055 A 
ATOM      3  C11 UNL     1      -0.454 -10.585   1.372  0.00  0.00    +0.140 A 
ATOM      4  C12 UNL     1      -0.437 -11.856   1.988  0.00  0.00    +0.064 A 
ATOM      5  C13 UNL     1      -0.573 -11.956   3.402  0.00  0.00    +0.057 A 
ATOM      6  C14 UNL     1      -0.840 -10.789   4.163  0.00  0.00    +0.056 A 
ATOM      7  C15 UNL     1      -1.211 -10.925   5.603  0.00  0.00    +0.196 C 
ATOM      8  O2  UNL     1      -1.667  -9.938   6.241  0.00  0.00    -0.287 OA
ATOM      9  C16 UNL     1      -1.112 -12.235   6.281  0.00  0.00    +0.033 A 
ATOM     10  C17 UNL     1      -1.421 -12.358   7.649  0.00  0.00    +0.012 A 
ATOM     11  C18 UNL     1      -1.327 -13.597   8.286  0.00  0.00    +0.001 A 
ATOM     12  C19 UNL     1      -0.925 -14.723   7.569  0.00  0.00    +0.001 A 
ATOM     13  C20 UNL     1      -0.615 -14.614   6.212  0.00  0.00    +0.012 A 
ATOM     14  C21 UNL     1      -0.708 -13.371   5.557  0.00  0.00    +0.033 A 
ATOM     15  C22 UNL     1      -0.370 -13.249   4.122  0.00  0.00    +0.196 C 
ATOM     16  O3  UNL     1       0.163 -14.231   3.538  0.00  0.00    -0.287 OA
ENDROOT
BRANCH   4  17
ATOM     17  N3  UNL     1      -0.349 -13.037   1.176  0.00  0.00    -0.356 N 
ATOM     18  H14 UNL     1       0.170 -13.043   0.272  0.00  0.00    +0.142 HD
ATOM     19  H15 UNL     1      -0.902 -13.890   1.412  0.00  0.00    +0.142 HD
ENDBRANCH   4  17
BRANCH   3  20
ATOM     20  S1  UNL     1      -0.307 -10.398  -0.383  0.00  0.00    +0.111 S 
ATOM     21  O4  UNL     1       1.005 -10.975  -0.839  0.00  0.00    -0.142 OA
ATOM     22  O5  UNL     1      -1.443 -11.110  -1.062  0.00  0.00    -0.142 OA
BRANCH  20  23
ATOM     23  O6  UNL     1      -0.364  -8.770  -0.802  0.00  0.00    -0.250 OA
ATOM     24  H16 UNL     1      -0.264  -8.756  -1.788  0.00  0.00    +0.245 HD
ENDBRANCH  20  23
ENDBRANCH   3  20
BRANCH   1  25
ATOM     25  N2  UNL     1      -0.892  -8.296   4.269  0.00  0.00    -0.314 N 
ATOM     26  H8  UNL     1      -1.853  -7.955   4.498  0.00  0.00    +0.152 HD
BRANCH  25  30
ATOM     27  C3  UNL     1       2.376  -5.660   4.995  0.00  0.00    +0.036 A 
ATOM     28  C4  UNL     1       1.151  -5.173   4.516  0.00  0.00    +0.025 A 
ATOM     29  C5  UNL     1       0.087  -6.046   4.276  0.00  0.00    +0.025 A 
ATOM     30  C6  UNL     1       0.226  -7.422   4.517  0.00  0.00    +0.031 A 
ATOM     31  C7  UNL     1       1.457  -7.911   4.993  0.00  0.00    +0.025 A 
ATOM     32  C8  UNL     1       2.520  -7.037   5.233  0.00  0.00    +0.025 A 
BRANCH  27  36
ATOM     33  C1  UNL     1       5.280  -3.157   4.375  0.00  0.00    +0.109 C 
ATOM     34  C2  UNL     1       4.206  -4.180   4.151  0.00  0.00    +0.216 C 
ATOM     35  O1  UNL     1       3.960  -4.543   2.967  0.00  0.00    -0.276 OA
ATOM     36  N1  UNL     1       3.470  -4.756   5.252  0.00  0.00    -0.275 N 
ATOM     37  C23 UNL     1       3.905  -4.534   6.635  0.00  0.00    +0.138 C 
ENDBRANCH  27  36
ENDBRANCH  25  30
ENDBRANCH   1  25
TORSDOF 6
ENDMDL
MODEL 4
REMARK minimizedAffinity -7.34301472
REMARK minimizedRMSD -1
REMARK  Name = /home/tchapet/Post-Doc/ARTICLES-DOSSIERS-DES-ARTICLES-EN-REDACTION/NOUVELS-AXES-DE-RECHERCHE-A-REGARDER-URGEMMENT/ARTICLES-EN-REDACTIONS/ARTICLE_MVOTO/Paper2_JCIM/docking_rerun/ligands/17574.pdb
REMARK  8 active torsions:
REMARK  status: ('A' for Active; 'I' for Inactive)
REMARK    1  A    between atoms: C1_1  and  C2_2
REMARK    2  A    between atoms: N1_4  and  C3_5
REMARK    3  A    between atoms: N1_4  and  C23_33
REMARK    4  A    between atoms: C6_8  and  N2_11
REMARK    5  A    between atoms: N2_11  and  C9_12
REMARK    6  A    between atoms: C11_14  and  S1_29
REMARK    7  A    between atoms: C12_15  and  N3_28
REMARK    8  A    between atoms: S1_29  and  O6_32
REMARK                            x       y       z     vdW  Elec       q    Type
REMARK                         _______ _______ _______ _____ _____    ______ ____
ROOT
ATOM      1  C9  UNL     1       1.019  -6.184   3.067  0.00  0.00    +0.045 A 
ATOM      2  C10 UNL     1       0.425  -7.022   4.008  0.00  0.00    +0.055 A 
ATOM      3  C11 UNL     1       0.854  -7.039   5.334  0.00  0.00    +0.140 A 
ATOM      4  C12 UNL     1       1.941  -6.228   5.730  0.00  0.00    +0.064 A 
ATOM      5  C13 UNL     1       2.591  -5.402   4.769  0.00  0.00    +0.057 A 
ATOM      6  C14 UNL     1       2.068  -5.313   3.454  0.00  0.00    +0.056 A 
ATOM      7  C15 UNL     1       2.606  -4.279   2.522  0.00  0.00    +0.196 C 
ATOM      8  O2  UNL     1       2.016  -4.028   1.436  0.00  0.00    -0.287 OA
ATOM      9  C16 UNL     1       3.797  -3.485   2.891  0.00  0.00    +0.033 A 
ATOM     10  C17 UNL     1       4.332  -2.538   1.997  0.00  0.00    +0.012 A 
ATOM     11  C18 UNL     1       5.457  -1.790   2.348  0.00  0.00    +0.001 A 
ATOM     12  C19 UNL     1       6.061  -1.979   3.591  0.00  0.00    +0.001 A 
ATOM     13  C20 UNL     1       5.541  -2.916   4.486  0.00  0.00    +0.012 A 
ATOM     14  C21 UNL     1       4.405  -3.675   4.145  0.00  0.00    +0.033 A 
ATOM     15  C22 UNL     1       3.858  -4.676   5.086  0.00  0.00    +0.196 C 
ATOM     16  O3  UNL     1       4.519  -4.962   6.121  0.00  0.00    -0.287 OA
ENDROOT
BRANCH   4  17
ATOM     17  N3  UNL     1       2.336  -6.197   7.110  0.00  0.00    -0.356 N 
ATOM     18  H14 UNL     1       2.235  -7.030   7.729  0.00  0.00    +0.142 HD
ATOM     19  H15 UNL     1       2.627  -5.303   7.562  0.00  0.00    +0.142 HD
ENDBRANCH   4  17
BRANCH   3  20
ATOM     20  S1  UNL     1      -0.005  -8.073   6.486  0.00  0.00    +0.111 S 
ATOM     21  O4  UNL     1      -1.177  -8.719   5.799  0.00  0.00    -0.142 OA
ATOM     22  O5  UNL     1       0.929  -9.129   7.007  0.00  0.00    -0.142 OA
BRANCH  20  23
ATOM     23  O6  UNL     1      -0.565  -7.160   7.783  0.00  0.00    -0.250 OA
ATOM     24  H16 UNL     1      -1.038  -7.807   8.366  0.00  0.00    +0.245 HD
ENDBRANCH  20  23
ENDBRANCH   3  20
BRANCH   1  25
ATOM     25  N2  UNL     1       0.551  -6.256   1.711  0.00  0.00    -0.314 N 
ATOM     26  H8  UNL     1       0.259  -5.362   1.256  0.00  0.00    +0.152 HD
BRANCH  25  30
ATOM     27  C3  UNL     1      -0.348  -9.927  -0.256  0.00  0.00    +0.036 A 
ATOM     28  C4  UNL     1      -1.122  -9.482   0.826  0.00  0.00    +0.025 A 
ATOM     29  C5  UNL     1      -0.816  -8.280   1.467  0.00  0.00    +0.025 A 
ATOM     30  C6  UNL     1       0.265  -7.497   1.036  0.00  0.00    +0.031 A 
ATOM     31  C7  UNL     1       1.045  -7.946  -0.047  0.00  0.00    +0.025 A 
ATOM     32  C8  UNL     1       0.738  -9.148  -0.688  0.00  0.00    +0.025 A 
BRANCH  27  36
ATOM     33  C1  UNL     1      -1.877 -12.413  -2.819  0.00  0.00    +0.109 C 
ATOM     34  C2  UNL     1      -1.597 -11.166  -2.034  0.00  0.00    +0.216 C 
ATOM     35  O1  UNL     1      -2.200 -10.105  -2.356  0.00  0.00    -0.276 OA
ATOM     36  N1  UNL     1      -0.672 -11.164  -0.924  0.00  0.00    -0.275 N 
ATOM     37  C23 UNL     1      -0.154 -12.425  -0.385  0.00  0.00    +0.138 C 
ENDBRANCH  27  36
ENDBRANCH  25  30
ENDBRANCH   1  25
TORSDOF 6
ENDMDL
MODEL 5
REMARK minimizedAffinity -7.20029783
REMARK minimizedRMSD -1
REMARK  Name = /home/tchapet/Post-Doc/ARTICLES-DOSSIERS-DES-ARTICLES-EN-REDACTION/NOUVELS-AXES-DE-RECHERCHE-A-REGARDER-URGEMMENT/ARTICLES-EN-REDACTIONS/ARTICLE_MVOTO/Paper2_JCIM/docking_rerun/ligands/17574.pdb
REMARK  8 active torsions:
REMARK  status: ('A' for Active; 'I' for Inactive)
REMARK    1  A    between atoms: C1_1  and  C2_2
REMARK    2  A    between atoms: N1_4  and  C3_5
REMARK    3  A    between atoms: N1_4  and  C23_33
REMARK    4  A    between atoms: C6_8  and  N2_11
REMARK    5  A    between atoms: N2_11  and  C9_12
REMARK    6  A    between atoms: C11_14  and  S1_29
REMARK    7  A    between atoms: C12_15  and  N3_28
REMARK    8  A    between atoms: S1_29  and  O6_32
REMARK                            x       y       z     vdW  Elec       q    Type
REMARK                         _______ _______ _______ _____ _____    ______ ____
ROOT
ATOM      1  C9  UNL     1      -0.795  -9.849   3.680  0.00  0.00    +0.045 A 
ATOM      2  C10 UNL     1      -0.350  -8.539   3.512  0.00  0.00    +0.055 A 
ATOM      3  C11 UNL     1       0.538  -7.957   4.414  0.00  0.00    +0.140 A 
ATOM      4  C12 UNL     1       0.964  -8.684   5.548  0.00  0.00    +0.064 A 
ATOM      5  C13 UNL     1       0.480 -10.006   5.761  0.00  0.00    +0.057 A 
ATOM      6  C14 UNL     1      -0.332 -10.621   4.773  0.00  0.00    +0.056 A 
ATOM      7  C15 UNL     1      -0.644 -12.076   4.887  0.00  0.00    +0.196 C 
ATOM      8  O2  UNL     1      -1.168 -12.695   3.921  0.00  0.00    -0.287 OA
ATOM      9  C16 UNL     1      -0.281 -12.827   6.107  0.00  0.00    +0.033 A 
ATOM     10  C17 UNL     1      -0.611 -14.190   6.235  0.00  0.00    +0.012 A 
ATOM     11  C18 UNL     1      -0.266 -14.896   7.389  0.00  0.00    +0.001 A 
ATOM     12  C19 UNL     1       0.410 -14.254   8.425  0.00  0.00    +0.001 A 
ATOM     13  C20 UNL     1       0.742 -12.902   8.312  0.00  0.00    +0.012 A 
ATOM     14  C21 UNL     1       0.402 -12.179   7.152  0.00  0.00    +0.033 A 
ATOM     15  C22 UNL     1       0.743 -10.744   7.032  0.00  0.00    +0.196 C 
ATOM     16  O3  UNL     1       1.187 -10.139   8.045  0.00  0.00    -0.287 OA
ENDROOT
BRANCH   4  17
ATOM     17  N3  UNL     1       1.932  -8.107   6.439  0.00  0.00    -0.356 N 
ATOM     18  H14 UNL     1       1.980  -7.078   6.603  0.00  0.00    +0.142 HD
ATOM     19  H15 UNL     1       2.689  -8.690   6.856  0.00  0.00    +0.142 HD
ENDBRANCH   4  17
BRANCH   3  20
ATOM     20  S1  UNL     1       1.119  -6.316   4.087  0.00  0.00    +0.111 S 
ATOM     21  O4  UNL     1       2.607  -6.345   3.879  0.00  0.00    -0.142 OA
ATOM     22  O5  UNL     1       0.440  -5.778   2.859  0.00  0.00    -0.142 OA
BRANCH  20  23
ATOM     23  O6  UNL     1       0.767  -5.305   5.385  0.00  0.00    -0.250 OA
ATOM     24  H16 UNL     1       1.132  -4.420   5.126  0.00  0.00    +0.245 HD
ENDBRANCH  20  23
ENDBRANCH   3  20
BRANCH   1  25
ATOM     25  N2  UNL     1      -1.744 -10.362   2.732  0.00  0.00    -0.314 N 
ATOM     26  H8  UNL     1      -2.582 -10.858   3.113  0.00  0.00    +0.152 HD
BRANCH  25  30
ATOM     27  C3  UNL     1      -0.978 -10.581  -1.454  0.00  0.00    +0.036 A 
ATOM     28  C4  UNL     1      -0.221 -11.332  -0.543  0.00  0.00    +0.025 A 
ATOM     29  C5  UNL     1      -0.476 -11.250   0.828  0.00  0.00    +0.025 A 
ATOM     30  C6  UNL     1      -1.497 -10.420   1.314  0.00  0.00    +0.031 A 
ATOM     31  C7  UNL     1      -2.253  -9.661   0.400  0.00  0.00    +0.025 A 
ATOM     32  C8  UNL     1      -1.998  -9.745  -0.971  0.00  0.00    +0.025 A 
BRANCH  27  36
ATOM     33  C1  UNL     1      -1.246 -11.720  -5.157  0.00  0.00    +0.109 C 
ATOM     34  C2  UNL     1      -1.409 -11.662  -3.667  0.00  0.00    +0.216 C 
ATOM     35  O1  UNL     1      -2.163 -12.509  -3.111  0.00  0.00    -0.276 OA
ATOM     36  N1  UNL     1      -0.719 -10.674  -2.870  0.00  0.00    -0.275 N 
ATOM     37  C23 UNL     1       0.339  -9.849  -3.460  0.00  0.00    +0.138 C 
ENDBRANCH  27  36
ENDBRANCH  25  30
ENDBRANCH   1  25
TORSDOF 6
ENDMDL
MODEL 6
REMARK minimizedAffinity -7.09918261
REMARK minimizedRMSD -1
REMARK  Name = /home/tchapet/Post-Doc/ARTICLES-DOSSIERS-DES-ARTICLES-EN-REDACTION/NOUVELS-AXES-DE-RECHERCHE-A-REGARDER-URGEMMENT/ARTICLES-EN-REDACTIONS/ARTICLE_MVOTO/Paper2_JCIM/docking_rerun/ligands/17574.pdb
REMARK  8 active torsions:
REMARK  status: ('A' for Active; 'I' for Inactive)
REMARK    1  A    between atoms: C1_1  and  C2_2
REMARK    2  A    between atoms: N1_4  and  C3_5
REMARK    3  A    between atoms: N1_4  and  C23_33
REMARK    4  A    between atoms: C6_8  and  N2_11
REMARK    5  A    between atoms: N2_11  and  C9_12
REMARK    6  A    between atoms: C11_14  and  S1_29
REMARK    7  A    between atoms: C12_15  and  N3_28
REMARK    8  A    between atoms: S1_29  and  O6_32
REMARK                            x       y       z     vdW  Elec       q    Type
REMARK                         _______ _______ _______ _____ _____    ______ ____
ROOT
ATOM      1  C9  UNL     1       0.374  -7.845   4.153  0.00  0.00    +0.045 A 
ATOM      2  C10 UNL     1      -0.393  -8.560   3.235  0.00  0.00    +0.055 A 
ATOM      3  C11 UNL     1      -0.289  -8.321   1.866  0.00  0.00    +0.140 A 
ATOM      4  C12 UNL     1       0.571  -7.305   1.394  0.00  0.00    +0.064 A 
ATOM      5  C13 UNL     1       1.325  -6.531   2.322  0.00  0.00    +0.057 A 
ATOM      6  C14 UNL     1       1.292  -6.865   3.700  0.00  0.00    +0.056 A 
ATOM      7  C15 UNL     1       2.254  -6.209   4.633  0.00  0.00    +0.196 C 
ATOM      8  O2  UNL     1       2.401  -6.642   5.809  0.00  0.00    -0.287 OA
ATOM      9  C16 UNL     1       3.097  -5.085   4.173  0.00  0.00    +0.033 A 
ATOM     10  C17 UNL     1       3.975  -4.436   5.062  0.00  0.00    +0.012 A 
ATOM     11  C18 UNL     1       4.770  -3.376   4.623  0.00  0.00    +0.001 A 
ATOM     12  C19 UNL     1       4.698  -2.951   3.297  0.00  0.00    +0.001 A 
ATOM     13  C20 UNL     1       3.831  -3.586   2.405  0.00  0.00    +0.012 A 
ATOM     14  C21 UNL     1       3.025  -4.658   2.835  0.00  0.00    +0.033 A 
ATOM     15  C22 UNL     1       2.097  -5.326   1.896  0.00  0.00    +0.196 C 
ATOM     16  O3  UNL     1       1.913  -4.815   0.758  0.00  0.00    -0.287 OA
ENDROOT
BRANCH   4  17
ATOM     17  N3  UNL     1       0.727  -7.108  -0.020  0.00  0.00    -0.356 N 
ATOM     18  H14 UNL     1      -0.053  -7.290  -0.688  0.00  0.00    +0.142 HD
ATOM     19  H15 UNL     1       1.661  -6.888  -0.429  0.00  0.00    +0.142 HD
ENDBRANCH   4  17
BRANCH   3  20
ATOM     20  S1  UNL     1      -1.238  -9.327   0.760  0.00  0.00    +0.111 S 
ATOM     21  O4  UNL     1      -2.065  -8.445  -0.133  0.00  0.00    -0.142 OA
ATOM     22  O5  UNL     1      -0.313 -10.173  -0.069  0.00  0.00    -0.142 OA
BRANCH  20  23
ATOM     23  O6  UNL     1      -2.262 -10.341   1.629  0.00  0.00    -0.250 OA
ATOM     24  H16 UNL     1      -2.758 -10.854   0.941  0.00  0.00    +0.245 HD
ENDBRANCH  20  23
ENDBRANCH   3  20
BRANCH   1  25
ATOM     25  N2  UNL     1       0.178  -8.118   5.549  0.00  0.00    -0.314 N 
ATOM     26  H8  UNL     1       0.247  -7.311   6.210  0.00  0.00    +0.152 HD
BRANCH  25  30
ATOM     27  C3  UNL     1       0.035 -12.064   7.149  0.00  0.00    +0.036 A 
ATOM     28  C4  UNL     1       1.126 -11.640   6.377  0.00  0.00    +0.025 A 
ATOM     29  C5  UNL     1       1.162 -10.345   5.853  0.00  0.00    +0.025 A 
ATOM     30  C6  UNL     1       0.110  -9.449   6.095  0.00  0.00    +0.031 A 
ATOM     31  C7  UNL     1      -0.988  -9.877   6.865  0.00  0.00    +0.025 A 
ATOM     32  C8  UNL     1      -1.022 -11.172   7.390  0.00  0.00    +0.025 A 
BRANCH  27  36
ATOM     33  C1  UNL     1      -0.753 -15.847   7.537  0.00  0.00    +0.109 C 
ATOM     34  C2  UNL     1      -0.780 -14.427   7.057  0.00  0.00    +0.216 C 
ATOM     35  O1  UNL     1      -1.519 -14.138   6.075  0.00  0.00    -0.276 OA
ATOM     36  N1  UNL     1       0.005 -13.397   7.698  0.00  0.00    -0.275 N 
ATOM     37  C23 UNL     1       0.672 -13.659   8.978  0.00  0.00    +0.138 C 
ENDBRANCH  27  36
ENDBRANCH  25  30
ENDBRANCH   1  25
TORSDOF 6
ENDMDL
MODEL 7
REMARK minimizedAffinity -7.07680178
REMARK minimizedRMSD -1
REMARK  Name = /home/tchapet/Post-Doc/ARTICLES-DOSSIERS-DES-ARTICLES-EN-REDACTION/NOUVELS-AXES-DE-RECHERCHE-A-REGARDER-URGEMMENT/ARTICLES-EN-REDACTIONS/ARTICLE_MVOTO/Paper2_JCIM/docking_rerun/ligands/17574.pdb
REMARK  8 active torsions:
REMARK  status: ('A' for Active; 'I' for Inactive)
REMARK    1  A    between atoms: C1_1  and  C2_2
REMARK    2  A    between atoms: N1_4  and  C3_5
REMARK    3  A    between atoms: N1_4  and  C23_33
REMARK    4  A    between atoms: C6_8  and  N2_11
REMARK    5  A    between atoms: N2_11  and  C9_12
REMARK    6  A    between atoms: C11_14  and  S1_29
REMARK    7  A    between atoms: C12_15  and  N3_28
REMARK    8  A    between atoms: S1_29  and  O6_32
REMARK                            x       y       z     vdW  Elec       q    Type
REMARK                         _______ _______ _______ _____ _____    ______ ____
ROOT
ATOM      1  C9  UNL     1      -0.073  -8.417   4.664  0.00  0.00    +0.045 A 
ATOM      2  C10 UNL     1      -0.655  -9.045   3.565  0.00  0.00    +0.055 A 
ATOM      3  C11 UNL     1      -0.271  -8.726   2.263  0.00  0.00    +0.140 A 
ATOM      4  C12 UNL     1       0.692  -7.715   2.044  0.00  0.00    +0.064 A 
ATOM      5  C13 UNL     1       1.260  -7.029   3.155  0.00  0.00    +0.057 A 
ATOM      6  C14 UNL     1       0.941  -7.447   4.472  0.00  0.00    +0.056 A 
ATOM      7  C15 UNL     1       1.710  -6.885   5.622  0.00  0.00    +0.196 C 
ATOM      8  O2  UNL     1       1.605  -7.396   6.771  0.00  0.00    -0.287 OA
ATOM      9  C16 UNL     1       2.655  -5.768   5.418  0.00  0.00    +0.033 A 
ATOM     10  C17 UNL     1       3.350  -5.208   6.507  0.00  0.00    +0.012 A 
ATOM     11  C18 UNL     1       4.243  -4.153   6.310  0.00  0.00    +0.001 A 
ATOM     12  C19 UNL     1       4.451  -3.645   5.028  0.00  0.00    +0.001 A 
ATOM     13  C20 UNL     1       3.768  -4.190   3.939  0.00  0.00    +0.012 A 
ATOM     14  C21 UNL     1       2.866  -5.257   4.125  0.00  0.00    +0.033 A 
ATOM     15  C22 UNL     1       2.132  -5.830   2.976  0.00  0.00    +0.196 C 
ATOM     16  O3  UNL     1       2.194  -5.243   1.861  0.00  0.00    -0.287 OA
ENDROOT
BRANCH   4  17
ATOM     17  N3  UNL     1       1.135  -7.437   0.707  0.00  0.00    -0.356 N 
ATOM     18  H14 UNL     1       0.503  -7.548  -0.115  0.00  0.00    +0.142 HD
ATOM     19  H15 UNL     1       2.137  -7.227   0.509  0.00  0.00    +0.142 HD
ENDBRANCH   4  17
BRANCH   3  20
ATOM     20  S1  UNL     1      -1.000  -9.625   0.924  0.00  0.00    +0.111 S 
ATOM     21  O4  UNL     1      -1.897  -8.710   0.137  0.00  0.00    -0.142 OA
ATOM     22  O5  UNL     1       0.083 -10.170   0.035  0.00  0.00    -0.142 OA
BRANCH  20  23
ATOM     23  O6  UNL     1      -1.911 -10.911   1.513  0.00  0.00    -0.250 OA
ATOM     24  H16 UNL     1      -2.288 -11.348   0.708  0.00  0.00    +0.245 HD
ENDBRANCH  20  23
ENDBRANCH   3  20
BRANCH   1  25
ATOM     25  N2  UNL     1      -0.554  -8.769   5.971  0.00  0.00    -0.314 N 
ATOM     26  H8  UNL     1      -0.812  -7.986   6.613  0.00  0.00    +0.152 HD
BRANCH  25  30
ATOM     27  C3  UNL     1      -0.440 -12.721   7.558  0.00  0.00    +0.036 A 
ATOM     28  C4  UNL     1      -1.604 -11.943   7.647  0.00  0.00    +0.025 A 
ATOM     29  C5  UNL     1      -1.629 -10.647   7.128  0.00  0.00    +0.025 A 
ATOM     30  C6  UNL     1      -0.495 -10.105   6.505  0.00  0.00    +0.031 A 
ATOM     31  C7  UNL     1       0.675 -10.884   6.421  0.00  0.00    +0.025 A 
ATOM     32  C8  UNL     1       0.700 -12.181   6.940  0.00  0.00    +0.025 A 
BRANCH  27  36
ATOM     33  C1  UNL     1      -1.123 -16.528   7.910  0.00  0.00    +0.109 C 
ATOM     34  C2  UNL     1      -1.202 -15.101   7.455  0.00  0.00    +0.216 C 
ATOM     35  O1  UNL     1      -1.983 -14.815   6.506  0.00  0.00    -0.276 OA
ATOM     36  N1  UNL     1      -0.418 -14.063   8.085  0.00  0.00    -0.275 N 
ATOM     37  C23 UNL     1       0.301 -14.330   9.335  0.00  0.00    +0.138 C 
ENDBRANCH  27  36
ENDBRANCH  25  30
ENDBRANCH   1  25
TORSDOF 6
ENDMDL
MODEL 8
REMARK minimizedAffinity -6.94701958
REMARK minimizedRMSD -1
REMARK  Name = /home/tchapet/Post-Doc/ARTICLES-DOSSIERS-DES-ARTICLES-EN-REDACTION/NOUVELS-AXES-DE-RECHERCHE-A-REGARDER-URGEMMENT/ARTICLES-EN-REDACTIONS/ARTICLE_MVOTO/Paper2_JCIM/docking_rerun/ligands/17574.pdb
REMARK  8 active torsions:
REMARK  status: ('A' for Active; 'I' for Inactive)
REMARK    1  A    between atoms: C1_1  and  C2_2
REMARK    2  A    between atoms: N1_4  and  C3_5
REMARK    3  A    between atoms: N1_4  and  C23_33
REMARK    4  A    between atoms: C6_8  and  N2_11
REMARK    5  A    between atoms: N2_11  and  C9_12
REMARK    6  A    between atoms: C11_14  and  S1_29
REMARK    7  A    between atoms: C12_15  and  N3_28
REMARK    8  A    between atoms: S1_29  and  O6_32
REMARK                            x       y       z     vdW  Elec       q    Type
REMARK                         _______ _______ _______ _____ _____    ______ ____
ROOT
ATOM      1  C9  UNL     1       2.955  -4.613   3.136  0.00  0.00    +0.045 A 
ATOM      2  C10 UNL     1       2.129  -5.098   2.124  0.00  0.00    +0.055 A 
ATOM      3  C11 UNL     1       2.108  -4.506   0.863  0.00  0.00    +0.140 A 
ATOM      4  C12 UNL     1       2.901  -3.365   0.610  0.00  0.00    +0.064 A 
ATOM      5  C13 UNL     1       3.714  -2.827   1.648  0.00  0.00    +0.057 A 
ATOM      6  C14 UNL     1       3.808  -3.510   2.887  0.00  0.00    +0.056 A 
ATOM      7  C15 UNL     1       4.832  -3.076   3.883  0.00  0.00    +0.196 C 
ATOM      8  O2  UNL     1       5.090  -3.794   4.888  0.00  0.00    -0.287 OA
ATOM      9  C16 UNL     1       5.606  -1.835   3.671  0.00  0.00    +0.033 A 
ATOM     10  C17 UNL     1       6.542  -1.401   4.629  0.00  0.00    +0.012 A 
ATOM     11  C18 UNL     1       7.272  -0.229   4.424  0.00  0.00    +0.001 A 
ATOM     12  C19 UNL     1       7.076   0.523   3.267  0.00  0.00    +0.001 A 
ATOM     13  C20 UNL     1       6.149   0.105   2.309  0.00  0.00    +0.012 A 
ATOM     14  C21 UNL     1       5.409  -1.078   2.502  0.00  0.00    +0.033 A 
ATOM     15  C22 UNL     1       4.419  -1.519   1.495  0.00  0.00    +0.196 C 
ATOM     16  O3  UNL     1       4.124  -0.738   0.550  0.00  0.00    -0.287 OA
ENDROOT
BRANCH   4  17
ATOM     17  N3  UNL     1       2.928  -2.799  -0.710  0.00  0.00    -0.356 N 
ATOM     18  H14 UNL     1       2.098  -2.836  -1.340  0.00  0.00    +0.142 HD
ATOM     19  H15 UNL     1       3.818  -2.439  -1.118  0.00  0.00    +0.142 HD
ENDBRANCH   4  17
BRANCH   3  20
ATOM     20  S1  UNL     1       1.090  -5.231  -0.392  0.00  0.00    +0.111 S 
ATOM     21  O4  UNL     1       1.951  -5.661  -1.547  0.00  0.00    -0.142 OA
ATOM     22  O5  UNL     1       0.362  -6.418   0.174  0.00  0.00    -0.142 OA
BRANCH  20  23
ATOM     23  O6  UNL     1      -0.043  -4.114  -0.940  0.00  0.00    -0.250 OA
ATOM     24  H16 UNL     1      -0.556  -4.593  -1.640  0.00  0.00    +0.245 HD
ENDBRANCH  20  23
ENDBRANCH   3  20
BRANCH   1  25
ATOM     25  N2  UNL     1       2.888  -5.249   4.422  0.00  0.00    -0.314 N 
ATOM     26  H8  UNL     1       3.637  -5.016   5.112  0.00  0.00    +0.152 HD
BRANCH  25  30
ATOM     27  C3  UNL     1       0.268  -8.488   5.320  0.00  0.00    +0.036 A 
ATOM     28  C4  UNL     1       1.593  -8.722   4.924  0.00  0.00    +0.025 A 
ATOM     29  C5  UNL     1       2.443  -7.654   4.627  0.00  0.00    +0.025 A 
ATOM     30  C6  UNL     1       1.986  -6.331   4.726  0.00  0.00    +0.031 A 
ATOM     31  C7  UNL     1       0.654  -6.096   5.118  0.00  0.00    +0.025 A 
ATOM     32  C8  UNL     1      -0.194  -7.165   5.416  0.00  0.00    +0.025 A 
BRANCH  27  36
ATOM     33  C1  UNL     1      -1.717 -11.110   7.385  0.00  0.00    +0.109 C 
ATOM     34  C2  UNL     1      -0.742 -10.036   7.004  0.00  0.00    +0.216 C 
ATOM     35  O1  UNL     1      -0.025  -9.527   7.909  0.00  0.00    -0.276 OA
ATOM     36  N1  UNL     1      -0.604  -9.591   5.636  0.00  0.00    -0.275 N 
ATOM     37  C23 UNL     1      -1.244 -10.333   4.545  0.00  0.00    +0.138 C 
ENDBRANCH  27  36
ENDBRANCH  25  30
ENDBRANCH   1  25
TORSDOF 6
ENDMDL
MODEL 9
REMARK minimizedAffinity -6.91651487
REMARK minimizedRMSD -1
REMARK  Name = /home/tchapet/Post-Doc/ARTICLES-DOSSIERS-DES-ARTICLES-EN-REDACTION/NOUVELS-AXES-DE-RECHERCHE-A-REGARDER-URGEMMENT/ARTICLES-EN-REDACTIONS/ARTICLE_MVOTO/Paper2_JCIM/docking_rerun/ligands/17574.pdb
REMARK  8 active torsions:
REMARK  status: ('A' for Active; 'I' for Inactive)
REMARK    1  A    between atoms: C1_1  and  C2_2
REMARK    2  A    between atoms: N1_4  and  C3_5
REMARK    3  A    between atoms: N1_4  and  C23_33
REMARK    4  A    between atoms: C6_8  and  N2_11
REMARK    5  A    between atoms: N2_11  and  C9_12
REMARK    6  A    between atoms: C11_14  and  S1_29
REMARK    7  A    between atoms: C12_15  and  N3_28
REMARK    8  A    between atoms: S1_29  and  O6_32
REMARK                            x       y       z     vdW  Elec       q    Type
REMARK                         _______ _______ _______ _____ _____    ______ ____
ROOT
ATOM      1  C9  UNL     1       0.165  -7.551   3.171  0.00  0.00    +0.045 A 
ATOM      2  C10 UNL     1      -0.474  -8.584   3.855  0.00  0.00    +0.055 A 
ATOM      3  C11 UNL     1      -0.102  -8.929   5.153  0.00  0.00    +0.140 A 
ATOM      4  C12 UNL     1       0.971  -8.256   5.778  0.00  0.00    +0.064 A 
ATOM      5  C13 UNL     1       1.667  -7.232   5.075  0.00  0.00    +0.057 A 
ATOM      6  C14 UNL     1       1.201  -6.818   3.801  0.00  0.00    +0.056 A 
ATOM      7  C15 UNL     1       1.784  -5.596   3.171  0.00  0.00    +0.196 C 
ATOM      8  O2  UNL     1       1.242  -5.080   2.156  0.00  0.00    -0.287 OA
ATOM      9  C16 UNL     1       2.962  -4.935   3.769  0.00  0.00    +0.033 A 
ATOM     10  C17 UNL     1       3.541  -3.808   3.155  0.00  0.00    +0.012 A 
ATOM     11  C18 UNL     1       4.653  -3.185   3.723  0.00  0.00    +0.001 A 
ATOM     12  C19 UNL     1       5.202  -3.680   4.906  0.00  0.00    +0.001 A 
ATOM     13  C20 UNL     1       4.640  -4.798   5.524  0.00  0.00    +0.012 A 
ATOM     14  C21 UNL     1       3.515  -5.433   4.963  0.00  0.00    +0.033 A 
ATOM     15  C22 UNL     1       2.923  -6.625   5.609  0.00  0.00    +0.196 C 
ATOM     16  O3  UNL     1       3.537  -7.164   6.569  0.00  0.00    -0.287 OA
ENDROOT
BRANCH   4  17
ATOM     17  N3  UNL     1       1.307  -8.567   7.139  0.00  0.00    -0.356 N 
ATOM     18  H14 UNL     1       1.175  -9.524   7.532  0.00  0.00    +0.142 HD
ATOM     19  H15 UNL     1       1.584  -7.815   7.806  0.00  0.00    +0.142 HD
ENDBRANCH   4  17
BRANCH   3  20
ATOM     20  S1  UNL     1      -1.015 -10.199   5.983  0.00  0.00    +0.111 S 
ATOM     21  O4  UNL     1      -0.316 -11.517   5.802  0.00  0.00    -0.142 OA
ATOM     22  O5  UNL     1      -1.118  -9.871   7.446  0.00  0.00    -0.142 OA
BRANCH  20  23
ATOM     23  O6  UNL     1      -2.568 -10.311   5.345  0.00  0.00    -0.250 OA
ATOM     24  H16 UNL     1      -3.001 -11.044   5.852  0.00  0.00    +0.245 HD
ENDBRANCH  20  23
ENDBRANCH   3  20
BRANCH   1  25
ATOM     25  N2  UNL     1      -0.246  -7.285   1.821  0.00  0.00    -0.314 N 
ATOM     26  H8  UNL     1      -0.615  -6.330   1.612  0.00  0.00    +0.152 HD
BRANCH  25  30
ATOM     27  C3  UNL     1      -0.567 -10.324  -1.149  0.00  0.00    +0.036 A 
ATOM     28  C4  UNL     1       0.687  -9.910  -0.675  0.00  0.00    +0.025 A 
ATOM     29  C5  UNL     1       0.782  -8.909   0.295  0.00  0.00    +0.025 A 
ATOM     30  C6  UNL     1      -0.375  -8.308   0.814  0.00  0.00    +0.031 A 
ATOM     31  C7  UNL     1      -1.632  -8.720   0.335  0.00  0.00    +0.025 A 
ATOM     32  C8  UNL     1      -1.726  -9.721  -0.634  0.00  0.00    +0.025 A 
BRANCH  27  36
ATOM     33  C1  UNL     1      -0.620 -12.089  -4.607  0.00  0.00    +0.109 C 
ATOM     34  C2  UNL     1      -0.628 -11.028  -3.548  0.00  0.00    +0.216 C 
ATOM     35  O1  UNL     1      -0.613  -9.818  -3.908  0.00  0.00    -0.276 OA
ATOM     36  N1  UNL     1      -0.664 -11.364  -2.143  0.00  0.00    -0.275 N 
ATOM     37  C23 UNL     1      -0.927 -12.741  -1.714  0.00  0.00    +0.138 C 
ENDBRANCH  27  36
ENDBRANCH  25  30
ENDBRANCH   1  25
TORSDOF 6
ENDMDL
