MODEL 1
REMARK minimizedAffinity -7.88278103
REMARK minimizedRMSD -1
REMARK  Name = /home/tchapet/Post-Doc/ARTICLES-DOSSIERS-DES-ARTICLES-EN-REDACTION/NOUVELS-AXES-DE-RECHERCHE-A-REGARDER-URGEMMENT/ARTICLES-EN-REDACTIONS/ARTICLE_MVOTO/Paper2_JCIM/docking_rerun/ligands/17574.pdb
REMARK  8 active torsions:
REMARK  status: ('A' for Active; 'I' for Inactive)
REMARK    1  A    between atoms: C1_1  and  C2_2
REMARK    2  A    between atoms: N1_4  and  C3_5
REMARK    3  A    between atoms: N1_4  and  C23_33
REMARK    4  A    between atoms: C6_8  and  N2_11
REMARK    5  A    between atoms: N2_11  and  C9_12
REMARK    6  A    between atoms: C11_14  and  S1_29
REMARK    7  A    between atoms: C12_15  and  N3_28
REMARK    8  A    between atoms: S1_29  and  O6_32
REMARK                            x       y       z     vdW  Elec       q    Type
REMARK                         _______ _______ _______ _____ _____    ______ ____
ROOT
ATOM      1  C9  UNL     1     -21.648 -30.989   7.243  0.00  0.00    +0.045 A 
ATOM      2  C10 UNL     1     -22.912 -30.750   7.779  0.00  0.00    +0.055 A 
ATOM      3  C11 UNL     1     -23.834 -29.937   7.121  0.00  0.00    +0.140 A 
ATOM      4  C12 UNL     1     -23.473 -29.304   5.912  0.00  0.00    +0.064 A 
ATOM      5  C13 UNL     1     -22.168 -29.498   5.376  0.00  0.00    +0.057 A 
ATOM      6  C14 UNL     1     -21.285 -30.417   5.999  0.00  0.00    +0.056 A 
ATOM      7  C15 UNL     1     -20.015 -30.792   5.310  0.00  0.00    +0.196 C 
ATOM      8  O2  UNL     1     -19.326 -31.763   5.725  0.00  0.00    -0.287 OA
ATOM      9  C16 UNL     1     -19.583 -30.075   4.092  0.00  0.00    +0.033 A 
ATOM     10  C17 UNL     1     -18.365 -30.397   3.464  0.00  0.00    +0.012 A 
ATOM     11  C18 UNL     1     -17.961 -29.718   2.313  0.00  0.00    +0.001 A 
ATOM     12  C19 UNL     1     -18.764 -28.712   1.778  0.00  0.00    +0.001 A 
ATOM     13  C20 UNL     1     -19.974 -28.381   2.392  0.00  0.00    +0.012 A 
ATOM     14  C21 UNL     1     -20.394 -29.060   3.552  0.00  0.00    +0.033 A 
ATOM     15  C22 UNL     1     -21.670 -28.706   4.211  0.00  0.00    +0.196 C 
ATOM     16  O3  UNL     1     -22.290 -27.678   3.823  0.00  0.00    -0.287 OA
ENDROOT
BRANCH   4  17
ATOM     17  N3  UNL     1     -24.447 -28.523   5.202  0.00  0.00    -0.356 N 
ATOM     18  H14 UNL     1     -25.197 -27.997   5.700  0.00  0.00    +0.142 HD
ATOM     19  H15 UNL     1     -24.501 -28.554   4.161  0.00  0.00    +0.142 HD
ENDBRANCH   4  17
BRANCH   3  20
ATOM     20  S1  UNL     1     -25.446 -29.748   7.827  0.00  0.00    +0.111 S 
ATOM     21  O4  UNL     1     -25.730 -28.287   8.040  0.00  0.00    -0.142 OA
ATOM     22  O5  UNL     1     -26.473 -30.340   6.903  0.00  0.00    -0.142 OA
BRANCH  20  23
ATOM     23  O6  UNL     1     -25.531 -30.543   9.308  0.00  0.00    -0.250 OA
ATOM     24  H16 UNL     1     -26.452 -30.377   9.635  0.00  0.00    +0.245 HD
ENDBRANCH  20  23
ENDBRANCH   3  20
BRANCH   1  25
ATOM     25  N2  UNL     1     -20.739 -31.801   8.002  0.00  0.00    -0.314 N 
ATOM     26  H8  UNL     1     -20.460 -32.720   7.591  0.00  0.00    +0.152 HD
BRANCH  25  30
ATOM     27  C3  UNL     1     -19.624 -31.019  12.040  0.00  0.00    +0.036 A 
ATOM     28  C4  UNL     1     -19.484 -32.302  11.490  0.00  0.00    +0.025 A 
ATOM     29  C5  UNL     1     -19.857 -32.549  10.167  0.00  0.00    +0.025 A 
ATOM     30  C6  UNL     1     -20.372 -31.518   9.367  0.00  0.00    +0.031 A 
ATOM     31  C7  UNL     1     -20.518 -30.232   9.920  0.00  0.00    +0.025 A 
ATOM     32  C8  UNL     1     -20.143 -29.985  11.244  0.00  0.00    +0.025 A 
BRANCH  27  36
ATOM     33  C1  UNL     1     -17.524 -29.823  15.080  0.00  0.00    +0.109 C 
ATOM     34  C2  UNL     1     -17.928 -30.201  13.686  0.00  0.00    +0.216 C 
ATOM     35  O1  UNL     1     -17.099 -30.026  12.751  0.00  0.00    -0.276 OA
ATOM     36  N1  UNL     1     -19.229 -30.763  13.403  0.00  0.00    -0.275 N 
ATOM     37  C23 UNL     1     -20.106 -31.197  14.496  0.00  0.00    +0.138 C 
ENDBRANCH  27  36
ENDBRANCH  25  30
ENDBRANCH   1  25
TORSDOF 6
ENDMDL
MODEL 2
REMARK minimizedAffinity -7.40439796
REMARK minimizedRMSD -1
REMARK  Name = /home/tchapet/Post-Doc/ARTICLES-DOSSIERS-DES-ARTICLES-EN-REDACTION/NOUVELS-AXES-DE-RECHERCHE-A-REGARDER-URGEMMENT/ARTICLES-EN-REDACTIONS/ARTICLE_MVOTO/Paper2_JCIM/docking_rerun/ligands/17574.pdb
REMARK  8 active torsions:
REMARK  status: ('A' for Active; 'I' for Inactive)
REMARK    1  A    between atoms: C1_1  and  C2_2
REMARK    2  A    between atoms: N1_4  and  C3_5
REMARK    3  A    between atoms: N1_4  and  C23_33
REMARK    4  A    between atoms: C6_8  and  N2_11
REMARK    5  A    between atoms: N2_11  and  C9_12
REMARK    6  A    between atoms: C11_14  and  S1_29
REMARK    7  A    between atoms: C12_15  and  N3_28
REMARK    8  A    between atoms: S1_29  and  O6_32
REMARK                            x       y       z     vdW  Elec       q    Type
REMARK                         _______ _______ _______ _____ _____    ______ ____
ROOT
ATOM      1  C9  UNL     1      -0.758  -9.476   3.560  0.00  0.00    +0.045 A 
ATOM      2  C10 UNL     1      -0.577  -9.371   2.183  0.00  0.00    +0.055 A 
ATOM      3  C11 UNL     1      -0.437 -10.505   1.384  0.00  0.00    +0.140 A 
ATOM      4  C12 UNL     1      -0.429 -11.786   1.979  0.00  0.00    +0.064 A 
ATOM      5  C13 UNL     1      -0.563 -11.908   3.392  0.00  0.00    +0.057 A 
ATOM      6  C14 UNL     1      -0.820 -10.752   4.173  0.00  0.00    +0.056 A 
ATOM      7  C15 UNL     1      -1.189 -10.910   5.610  0.00  0.00    +0.196 C 
ATOM      8  O2  UNL     1      -1.636  -9.930   6.266  0.00  0.00    -0.287 OA
ATOM      9  C16 UNL     1      -1.100 -12.231   6.267  0.00  0.00    +0.033 A 
ATOM     10  C17 UNL     1      -1.407 -12.375   7.633  0.00  0.00    +0.012 A 
ATOM     11  C18 UNL     1      -1.323 -13.625   8.249  0.00  0.00    +0.001 A 
ATOM     12  C19 UNL     1      -0.931 -14.742   7.512  0.00  0.00    +0.001 A 
ATOM     13  C20 UNL     1      -0.623 -14.613   6.156  0.00  0.00    +0.012 A 
ATOM     14  C21 UNL     1      -0.706 -13.358   5.523  0.00  0.00    +0.033 A 
ATOM     15  C22 UNL     1      -0.370 -13.215   4.089  0.00  0.00    +0.196 C 
ATOM     16  O3  UNL     1       0.154 -14.191   3.488  0.00  0.00    -0.287 OA
ENDROOT
BRANCH   4  17
ATOM     17  N3  UNL     1      -0.353 -12.954   1.147  0.00  0.00    -0.356 N 
ATOM     18  H14 UNL     1       0.165 -12.949   0.242  0.00  0.00    +0.142 HD
ATOM     19  H15 UNL     1      -0.912 -13.806   1.370  0.00  0.00    +0.142 HD
ENDBRANCH   4  17
BRANCH   3  20
ATOM     20  S1  UNL     1      -0.291 -10.290  -0.367  0.00  0.00    +0.111 S 
ATOM     21  O4  UNL     1       1.007 -10.885  -0.838  0.00  0.00    -0.142 OA
ATOM     22  O5  UNL     1      -1.444 -10.966  -1.055  0.00  0.00    -0.142 OA
BRANCH  20  23
ATOM     23  O6  UNL     1      -0.317  -8.653  -0.757  0.00  0.00    -0.250 OA
ATOM     24  H16 UNL     1      -0.219  -8.624  -1.743  0.00  0.00    +0.245 HD
ENDBRANCH  20  23
ENDBRANCH   3  20
BRANCH   1  25
ATOM     25  N2  UNL     1      -0.851  -8.261   4.321  0.00  0.00    -0.314 N 
ATOM     26  H8  UNL     1      -1.807  -7.933   4.584  0.00  0.00    +0.152 HD
BRANCH  25  30
ATOM     27  C3  UNL     1       2.414  -5.605   4.982  0.00  0.00    +0.036 A 
ATOM     28  C4  UNL     1       1.189  -5.131   4.489  0.00  0.00    +0.025 A 
ATOM     29  C5  UNL     1       0.126  -6.011   4.271  0.00  0.00    +0.025 A 
ATOM     30  C6  UNL     1       0.266  -7.380   4.547  0.00  0.00    +0.031 A 
ATOM     31  C7  UNL     1       1.497  -7.855   5.036  0.00  0.00    +0.025 A 
ATOM     32  C8  UNL     1       2.559  -6.975   5.255  0.00  0.00    +0.025 A 
BRANCH  27  36
ATOM     33  C1  UNL     1       5.281  -3.074   4.303  0.00  0.00    +0.109 C 
ATOM     34  C2  UNL     1       4.211  -4.105   4.100  0.00  0.00    +0.216 C 
ATOM     35  O1  UNL     1       3.937  -4.463   2.921  0.00  0.00    -0.276 OA
ATOM     36  N1  UNL     1       3.507  -4.693   5.216  0.00  0.00    -0.275 N 
ATOM     37  C23 UNL     1       3.975  -4.475   6.589  0.00  0.00    +0.138 C 
ENDBRANCH  27  36
ENDBRANCH  25  30
ENDBRANCH   1  25
TORSDOF 6
ENDMDL
MODEL 3
REMARK minimizedAffinity -7.30364513
REMARK minimizedRMSD -1
REMARK  Name = /home/tchapet/Post-Doc/ARTICLES-DOSSIERS-DES-ARTICLES-EN-REDACTION/NOUVELS-AXES-DE-RECHERCHE-A-REGARDER-URGEMMENT/ARTICLES-EN-REDACTIONS/ARTICLE_MVOTO/Paper2_JCIM/docking_rerun/ligands/17574.pdb
REMARK  8 active torsions:
REMARK  status: ('A' for Active; 'I' for Inactive)
REMARK    1  A    between atoms: C1_1  and  C2_2
REMARK    2  A    between atoms: N1_4  and  C3_5
REMARK    3  A    between atoms: N1_4  and  C23_33
REMARK    4  A    between atoms: C6_8  and  N2_11
REMARK    5  A    between atoms: N2_11  and  C9_12
REMARK    6  A    between atoms: C11_14  and  S1_29
REMARK    7  A    between atoms: C12_15  and  N3_28
REMARK    8  A    between atoms: S1_29  and  O6_32
REMARK                            x       y       z     vdW  Elec       q    Type
REMARK                         _______ _______ _______ _____ _____    ______ ____
ROOT
ATOM      1  C9  UNL     1       1.007  -6.191   3.065  0.00  0.00    +0.045 A 
ATOM      2  C10 UNL     1       0.414  -7.026   4.010  0.00  0.00    +0.055 A 
ATOM      3  C11 UNL     1       0.844  -7.037   5.336  0.00  0.00    +0.140 A 
ATOM      4  C12 UNL     1       1.931  -6.225   5.728  0.00  0.00    +0.064 A 
ATOM      5  C13 UNL     1       2.580  -5.402   4.764  0.00  0.00    +0.057 A 
ATOM      6  C14 UNL     1       2.056  -5.318   3.448  0.00  0.00    +0.056 A 
ATOM      7  C15 UNL     1       2.592  -4.287   2.512  0.00  0.00    +0.196 C 
ATOM      8  O2  UNL     1       2.001  -4.041   1.426  0.00  0.00    -0.287 OA
ATOM      9  C16 UNL     1       3.783  -3.491   2.877  0.00  0.00    +0.033 A 
ATOM     10  C17 UNL     1       4.317  -2.547   1.979  0.00  0.00    +0.012 A 
ATOM     11  C18 UNL     1       5.441  -1.797   2.327  0.00  0.00    +0.001 A 
ATOM     12  C19 UNL     1       6.046  -1.980   3.570  0.00  0.00    +0.001 A 
ATOM     13  C20 UNL     1       5.528  -2.914   4.469  0.00  0.00    +0.012 A 
ATOM     14  C21 UNL     1       4.392  -3.675   4.131  0.00  0.00    +0.033 A 
ATOM     15  C22 UNL     1       3.846  -4.674   5.077  0.00  0.00    +0.196 C 
ATOM     16  O3  UNL     1       4.508  -4.955   6.112  0.00  0.00    -0.287 OA
ENDROOT
BRANCH   4  17
ATOM     17  N3  UNL     1       2.327  -6.188   7.107  0.00  0.00    -0.356 N 
ATOM     18  H14 UNL     1       2.227  -7.018   7.729  0.00  0.00    +0.142 HD
ATOM     19  H15 UNL     1       2.618  -5.292   7.556  0.00  0.00    +0.142 HD
ENDBRANCH   4  17
BRANCH   3  20
ATOM     20  S1  UNL     1      -0.013  -8.068   6.492  0.00  0.00    +0.111 S 
ATOM     21  O4  UNL     1      -1.174  -8.732   5.804  0.00  0.00    -0.142 OA
ATOM     22  O5  UNL     1       0.927  -9.109   7.031  0.00  0.00    -0.142 OA
BRANCH  20  23
ATOM     23  O6  UNL     1      -0.591  -7.147   7.776  0.00  0.00    -0.250 OA
ATOM     24  H16 UNL     1      -1.062  -7.793   8.362  0.00  0.00    +0.245 HD
ENDBRANCH  20  23
ENDBRANCH   3  20
BRANCH   1  25
ATOM     25  N2  UNL     1       0.538  -6.269   1.710  0.00  0.00    -0.314 N 
ATOM     26  H8  UNL     1       0.239  -5.377   1.254  0.00  0.00    +0.152 HD
BRANCH  25  30
ATOM     27  C3  UNL     1      -0.339  -9.948  -0.251  0.00  0.00    +0.036 A 
ATOM     28  C4  UNL     1      -1.131  -9.494   0.814  0.00  0.00    +0.025 A 
ATOM     29  C5  UNL     1      -0.832  -8.289   1.454  0.00  0.00    +0.025 A 
ATOM     30  C6  UNL     1       0.260  -7.512   1.037  0.00  0.00    +0.031 A 
ATOM     31  C7  UNL     1       1.057  -7.971  -0.028  0.00  0.00    +0.025 A 
ATOM     32  C8  UNL     1       0.757  -9.176  -0.668  0.00  0.00    +0.025 A 
BRANCH  27  36
ATOM     33  C1  UNL     1      -1.863 -12.449  -2.802  0.00  0.00    +0.109 C 
ATOM     34  C2  UNL     1      -1.590 -11.199  -2.019  0.00  0.00    +0.216 C 
ATOM     35  O1  UNL     1      -2.207 -10.145  -2.335  0.00  0.00    -0.276 OA
ATOM     36  N1  UNL     1      -0.655 -11.188  -0.917  0.00  0.00    -0.275 N 
ATOM     37  C23 UNL     1      -0.119 -12.444  -0.383  0.00  0.00    +0.138 C 
ENDBRANCH  27  36
ENDBRANCH  25  30
ENDBRANCH   1  25
TORSDOF 6
ENDMDL
MODEL 4
REMARK minimizedAffinity -7.18200636
REMARK minimizedRMSD -1
REMARK  Name = /home/tchapet/Post-Doc/ARTICLES-DOSSIERS-DES-ARTICLES-EN-REDACTION/NOUVELS-AXES-DE-RECHERCHE-A-REGARDER-URGEMMENT/ARTICLES-EN-REDACTIONS/ARTICLE_MVOTO/Paper2_JCIM/docking_rerun/ligands/17574.pdb
REMARK  8 active torsions:
REMARK  status: ('A' for Active; 'I' for Inactive)
REMARK    1  A    between atoms: C1_1  and  C2_2
REMARK    2  A    between atoms: N1_4  and  C3_5
REMARK    3  A    between atoms: N1_4  and  C23_33
REMARK    4  A    between atoms: C6_8  and  N2_11
REMARK    5  A    between atoms: N2_11  and  C9_12
REMARK    6  A    between atoms: C11_14  and  S1_29
REMARK    7  A    between atoms: C12_15  and  N3_28
REMARK    8  A    between atoms: S1_29  and  O6_32
REMARK                            x       y       z     vdW  Elec       q    Type
REMARK                         _______ _______ _______ _____ _____    ______ ____
ROOT
ATOM      1  C9  UNL     1      -0.906 -11.146   2.057  0.00  0.00    +0.045 A 
ATOM      2  C10 UNL     1      -0.056 -12.113   2.590  0.00  0.00    +0.055 A 
ATOM      3  C11 UNL     1       0.536 -13.080   1.779  0.00  0.00    +0.140 A 
ATOM      4  C12 UNL     1       0.238 -13.117   0.399  0.00  0.00    +0.064 A 
ATOM      5  C13 UNL     1      -0.668 -12.166  -0.153  0.00  0.00    +0.057 A 
ATOM      6  C14 UNL     1      -1.170 -11.122   0.665  0.00  0.00    +0.056 A 
ATOM      7  C15 UNL     1      -1.927 -10.001   0.035  0.00  0.00    +0.196 C 
ATOM      8  O2  UNL     1      -2.189  -8.957   0.693  0.00  0.00    -0.287 OA
ATOM      9  C16 UNL     1      -2.321 -10.069  -1.388  0.00  0.00    +0.033 A 
ATOM     10  C17 UNL     1      -3.072  -9.032  -1.975  0.00  0.00    +0.012 A 
ATOM     11  C18 UNL     1      -3.442  -9.100  -3.319  0.00  0.00    +0.001 A 
ATOM     12  C19 UNL     1      -3.069 -10.199  -4.091  0.00  0.00    +0.001 A 
ATOM     13  C20 UNL     1      -2.325 -11.235  -3.522  0.00  0.00    +0.012 A 
ATOM     14  C21 UNL     1      -1.944 -11.177  -2.167  0.00  0.00    +0.033 A 
ATOM     15  C22 UNL     1      -1.165 -12.277  -1.557  0.00  0.00    +0.196 C 
ATOM     16  O3  UNL     1      -0.995 -13.339  -2.215  0.00  0.00    -0.287 OA
ENDROOT
BRANCH   4  17
ATOM     17  N3  UNL     1       0.901 -14.071  -0.445  0.00  0.00    -0.356 N 
ATOM     18  H14 UNL     1       1.191 -15.008  -0.091  0.00  0.00    +0.142 HD
ATOM     19  H15 UNL     1       1.216 -13.808  -1.404  0.00  0.00    +0.142 HD
ENDBRANCH   4  17
BRANCH   3  20
ATOM     20  S1  UNL     1       1.667 -14.224   2.519  0.00  0.00    +0.111 S 
ATOM     21  O4  UNL     1       3.024 -14.060   1.893  0.00  0.00    -0.142 OA
ATOM     22  O5  UNL     1       1.749 -13.965   3.997  0.00  0.00    -0.142 OA
BRANCH  20  23
ATOM     23  O6  UNL     1       1.138 -15.803   2.277  0.00  0.00    -0.250 OA
ATOM     24  H16 UNL     1       1.827 -16.372   2.707  0.00  0.00    +0.245 HD
ENDBRANCH  20  23
ENDBRANCH   3  20
BRANCH   1  25
ATOM     25  N2  UNL     1      -1.512 -10.211   2.963  0.00  0.00    -0.314 N 
ATOM     26  H8  UNL     1      -2.550 -10.101   2.916  0.00  0.00    +0.152 HD
BRANCH  25  30
ATOM     27  C3  UNL     1       0.732  -7.428   5.282  0.00  0.00    +0.036 A 
ATOM     28  C4  UNL     1       0.819  -7.434   3.882  0.00  0.00    +0.025 A 
ATOM     29  C5  UNL     1       0.083  -8.354   3.131  0.00  0.00    +0.025 A 
ATOM     30  C6  UNL     1      -0.758  -9.281   3.765  0.00  0.00    +0.031 A 
ATOM     31  C7  UNL     1      -0.842  -9.278   5.170  0.00  0.00    +0.025 A 
ATOM     32  C8  UNL     1      -0.106  -8.357   5.920  0.00  0.00    +0.025 A 
BRANCH  27  36
ATOM     33  C1  UNL     1       3.720  -5.689   7.051  0.00  0.00    +0.109 C 
ATOM     34  C2  UNL     1       2.880  -6.709   6.341  0.00  0.00    +0.216 C 
ATOM     35  O1  UNL     1       3.417  -7.799   6.002  0.00  0.00    -0.276 OA
ATOM     36  N1  UNL     1       1.484  -6.471   6.055  0.00  0.00    -0.275 N 
ATOM     37  C23 UNL     1       0.787  -5.327   6.652  0.00  0.00    +0.138 C 
ENDBRANCH  27  36
ENDBRANCH  25  30
ENDBRANCH   1  25
TORSDOF 6
ENDMDL
MODEL 5
REMARK minimizedAffinity -7.09559059
REMARK minimizedRMSD -1
REMARK  Name = /home/tchapet/Post-Doc/ARTICLES-DOSSIERS-DES-ARTICLES-EN-REDACTION/NOUVELS-AXES-DE-RECHERCHE-A-REGARDER-URGEMMENT/ARTICLES-EN-REDACTIONS/ARTICLE_MVOTO/Paper2_JCIM/docking_rerun/ligands/17574.pdb
REMARK  8 active torsions:
REMARK  status: ('A' for Active; 'I' for Inactive)
REMARK    1  A    between atoms: C1_1  and  C2_2
REMARK    2  A    between atoms: N1_4  and  C3_5
REMARK    3  A    between atoms: N1_4  and  C23_33
REMARK    4  A    between atoms: C6_8  and  N2_11
REMARK    5  A    between atoms: N2_11  and  C9_12
REMARK    6  A    between atoms: C11_14  and  S1_29
REMARK    7  A    between atoms: C12_15  and  N3_28
REMARK    8  A    between atoms: S1_29  and  O6_32
REMARK                            x       y       z     vdW  Elec       q    Type
REMARK                         _______ _______ _______ _____ _____    ______ ____
ROOT
ATOM      1  C9  UNL     1       0.376  -7.869   4.147  0.00  0.00    +0.045 A 
ATOM      2  C10 UNL     1      -0.393  -8.580   3.228  0.00  0.00    +0.055 A 
ATOM      3  C11 UNL     1      -0.296  -8.332   1.860  0.00  0.00    +0.140 A 
ATOM      4  C12 UNL     1       0.560  -7.311   1.391  0.00  0.00    +0.064 A 
ATOM      5  C13 UNL     1       1.316  -6.542   2.321  0.00  0.00    +0.057 A 
ATOM      6  C14 UNL     1       1.291  -6.885   3.697  0.00  0.00    +0.056 A 
ATOM      7  C15 UNL     1       2.255  -6.233   4.630  0.00  0.00    +0.196 C 
ATOM      8  O2  UNL     1       2.408  -6.674   5.802  0.00  0.00    -0.287 OA
ATOM      9  C16 UNL     1       3.094  -5.105   4.173  0.00  0.00    +0.033 A 
ATOM     10  C17 UNL     1       3.974  -4.459   5.063  0.00  0.00    +0.012 A 
ATOM     11  C18 UNL     1       4.765  -3.395   4.627  0.00  0.00    +0.001 A 
ATOM     12  C19 UNL     1       4.687  -2.962   3.304  0.00  0.00    +0.001 A 
ATOM     13  C20 UNL     1       3.817  -3.592   2.412  0.00  0.00    +0.012 A 
ATOM     14  C21 UNL     1       3.015  -4.669   2.839  0.00  0.00    +0.033 A 
ATOM     15  C22 UNL     1       2.085  -5.332   1.899  0.00  0.00    +0.196 C 
ATOM     16  O3  UNL     1       1.894  -4.815   0.766  0.00  0.00    -0.287 OA
ENDROOT
BRANCH   4  17
ATOM     17  N3  UNL     1       0.709  -7.104  -0.022  0.00  0.00    -0.356 N 
ATOM     18  H14 UNL     1      -0.073  -7.283  -0.688  0.00  0.00    +0.142 HD
ATOM     19  H15 UNL     1       1.640  -6.880  -0.434  0.00  0.00    +0.142 HD
ENDBRANCH   4  17
BRANCH   3  20
ATOM     20  S1  UNL     1      -1.248  -9.333   0.752  0.00  0.00    +0.111 S 
ATOM     21  O4  UNL     1      -2.064  -8.445  -0.146  0.00  0.00    -0.142 OA
ATOM     22  O5  UNL     1      -0.326 -10.187  -0.072  0.00  0.00    -0.142 OA
BRANCH  20  23
ATOM     23  O6  UNL     1      -2.283 -10.337   1.618  0.00  0.00    -0.250 OA
ATOM     24  H16 UNL     1      -2.780 -10.847   0.929  0.00  0.00    +0.245 HD
ENDBRANCH  20  23
ENDBRANCH   3  20
BRANCH   1  25
ATOM     25  N2  UNL     1       0.188  -8.152   5.543  0.00  0.00    -0.314 N 
ATOM     26  H8  UNL     1       0.237  -7.346   6.206  0.00  0.00    +0.152 HD
BRANCH  25  30
ATOM     27  C3  UNL     1       0.019 -12.091   7.159  0.00  0.00    +0.036 A 
ATOM     28  C4  UNL     1      -1.009 -11.168   7.403  0.00  0.00    +0.025 A 
ATOM     29  C5  UNL     1      -0.942  -9.877   6.873  0.00  0.00    +0.025 A 
ATOM     30  C6  UNL     1       0.151  -9.487   6.084  0.00  0.00    +0.031 A 
ATOM     31  C7  UNL     1       1.184 -10.411   5.844  0.00  0.00    +0.025 A 
ATOM     32  C8  UNL     1       1.116 -11.702   6.374  0.00  0.00    +0.025 A 
BRANCH  27  36
ATOM     33  C1  UNL     1      -0.858 -15.859   7.497  0.00  0.00    +0.109 C 
ATOM     34  C2  UNL     1      -0.841 -14.436   7.025  0.00  0.00    +0.216 C 
ATOM     35  O1  UNL     1      -1.539 -14.126   6.020  0.00  0.00    -0.276 OA
ATOM     36  N1  UNL     1      -0.057 -13.426   7.699  0.00  0.00    -0.275 N 
ATOM     37  C23 UNL     1       0.560 -13.708   8.999  0.00  0.00    +0.138 C 
ENDBRANCH  27  36
ENDBRANCH  25  30
ENDBRANCH   1  25
TORSDOF 6
ENDMDL
MODEL 6
REMARK minimizedAffinity -6.98683405
REMARK minimizedRMSD -1
REMARK  Name = /home/tchapet/Post-Doc/ARTICLES-DOSSIERS-DES-ARTICLES-EN-REDACTION/NOUVELS-AXES-DE-RECHERCHE-A-REGARDER-URGEMMENT/ARTICLES-EN-REDACTIONS/ARTICLE_MVOTO/Paper2_JCIM/docking_rerun/ligands/17574.pdb
REMARK  8 active torsions:
REMARK  status: ('A' for Active; 'I' for Inactive)
REMARK    1  A    between atoms: C1_1  and  C2_2
REMARK    2  A    between atoms: N1_4  and  C3_5
REMARK    3  A    between atoms: N1_4  and  C23_33
REMARK    4  A    between atoms: C6_8  and  N2_11
REMARK    5  A    between atoms: N2_11  and  C9_12
REMARK    6  A    between atoms: C11_14  and  S1_29
REMARK    7  A    between atoms: C12_15  and  N3_28
REMARK    8  A    between atoms: S1_29  and  O6_32
REMARK                            x       y       z     vdW  Elec       q    Type
REMARK                         _______ _______ _______ _____ _____    ______ ____
ROOT
ATOM      1  C9  UNL     1      -0.902 -10.446   3.190  0.00  0.00    +0.045 A 
ATOM      2  C10 UNL     1      -0.687 -10.555   1.818  0.00  0.00    +0.055 A 
ATOM      3  C11 UNL     1      -0.386 -11.782   1.229  0.00  0.00    +0.140 A 
ATOM      4  C12 UNL     1      -0.248 -12.933   2.037  0.00  0.00    +0.064 A 
ATOM      5  C13 UNL     1      -0.416 -12.829   3.447  0.00  0.00    +0.057 A 
ATOM      6  C14 UNL     1      -0.834 -11.598   4.013  0.00  0.00    +0.056 A 
ATOM      7  C15 UNL     1      -1.231 -11.552   5.451  0.00  0.00    +0.196 C 
ATOM      8  O2  UNL     1      -1.814 -10.537   5.921  0.00  0.00    -0.287 OA
ATOM      9  C16 UNL     1      -1.010 -12.722   6.327  0.00  0.00    +0.033 A 
ATOM     10  C17 UNL     1      -1.345 -12.668   7.693  0.00  0.00    +0.012 A 
ATOM     11  C18 UNL     1      -1.136 -13.775   8.517  0.00  0.00    +0.001 A 
ATOM     12  C19 UNL     1      -0.590 -14.945   7.990  0.00  0.00    +0.001 A 
ATOM     13  C20 UNL     1      -0.252 -15.012   6.637  0.00  0.00    +0.012 A 
ATOM     14  C21 UNL     1      -0.461 -13.902   5.794  0.00  0.00    +0.033 A 
ATOM     15  C22 UNL     1      -0.094 -13.965   4.362  0.00  0.00    +0.196 C 
ATOM     16  O3  UNL     1       0.562 -14.958   3.946  0.00  0.00    -0.287 OA
ENDROOT
BRANCH   4  17
ATOM     17  N3  UNL     1      -0.006 -14.207   1.420  0.00  0.00    -0.356 N 
ATOM     18  H14 UNL     1       0.539 -14.293   0.535  0.00  0.00    +0.142 HD
ATOM     19  H15 UNL     1      -0.468 -15.071   1.779  0.00  0.00    +0.142 HD
ENDBRANCH   4  17
BRANCH   3  20
ATOM     20  S1  UNL     1      -0.206 -11.852  -0.531  0.00  0.00    +0.111 S 
ATOM     21  O4  UNL     1      -1.311 -12.689  -1.113  0.00  0.00    -0.142 OA
ATOM     22  O5  UNL     1      -0.264 -10.461  -1.098  0.00  0.00    -0.142 OA
BRANCH  20  23
ATOM     23  O6  UNL     1       1.274 -12.539  -0.938  0.00  0.00    -0.250 OA
ATOM     24  H16 UNL     1       1.287 -12.550  -1.929  0.00  0.00    +0.245 HD
ENDBRANCH  20  23
ENDBRANCH   3  20
BRANCH   1  25
ATOM     25  N2  UNL     1      -1.164  -9.140   3.728  0.00  0.00    -0.314 N 
ATOM     26  H8  UNL     1      -2.128  -8.756   3.606  0.00  0.00    +0.152 HD
BRANCH  25  30
ATOM     27  C3  UNL     1       1.929  -6.581   5.156  0.00  0.00    +0.036 A 
ATOM     28  C4  UNL     1       2.235  -7.774   4.484  0.00  0.00    +0.025 A 
ATOM     29  C5  UNL     1       1.213  -8.609   4.024  0.00  0.00    +0.025 A 
ATOM     30  C6  UNL     1      -0.132  -8.264   4.222  0.00  0.00    +0.031 A 
ATOM     31  C7  UNL     1      -0.438  -7.070   4.901  0.00  0.00    +0.025 A 
ATOM     32  C8  UNL     1       0.584  -6.235   5.360  0.00  0.00    +0.025 A 
BRANCH  27  36
ATOM     33  C1  UNL     1       4.539  -3.706   5.235  0.00  0.00    +0.109 C 
ATOM     34  C2  UNL     1       3.517  -4.692   4.752  0.00  0.00    +0.216 C 
ATOM     35  O1  UNL     1       3.131  -4.618   3.553  0.00  0.00    -0.276 OA
ATOM     36  N1  UNL     1       2.985  -5.715   5.621  0.00  0.00    -0.275 N 
ATOM     37  C23 UNL     1       3.594  -5.970   6.931  0.00  0.00    +0.138 C 
ENDBRANCH  27  36
ENDBRANCH  25  30
ENDBRANCH   1  25
TORSDOF 6
ENDMDL
MODEL 7
REMARK minimizedAffinity -6.9572134
REMARK minimizedRMSD -1
REMARK  Name = /home/tchapet/Post-Doc/ARTICLES-DOSSIERS-DES-ARTICLES-EN-REDACTION/NOUVELS-AXES-DE-RECHERCHE-A-REGARDER-URGEMMENT/ARTICLES-EN-REDACTIONS/ARTICLE_MVOTO/Paper2_JCIM/docking_rerun/ligands/17574.pdb
REMARK  8 active torsions:
REMARK  status: ('A' for Active; 'I' for Inactive)
REMARK    1  A    between atoms: C1_1  and  C2_2
REMARK    2  A    between atoms: N1_4  and  C3_5
REMARK    3  A    between atoms: N1_4  and  C23_33
REMARK    4  A    between atoms: C6_8  and  N2_11
REMARK    5  A    between atoms: N2_11  and  C9_12
REMARK    6  A    between atoms: C11_14  and  S1_29
REMARK    7  A    between atoms: C12_15  and  N3_28
REMARK    8  A    between atoms: S1_29  and  O6_32
REMARK                            x       y       z     vdW  Elec       q    Type
REMARK                         _______ _______ _______ _____ _____    ______ ____
ROOT
ATOM      1  C9  UNL     1     -22.802 -29.588   6.471  0.00  0.00    +0.045 A 
ATOM      2  C10 UNL     1     -22.895 -30.342   7.639  0.00  0.00    +0.055 A 
ATOM      3  C11 UNL     1     -21.908 -31.264   7.984  0.00  0.00    +0.140 A 
ATOM      4  C12 UNL     1     -20.815 -31.479   7.116  0.00  0.00    +0.064 A 
ATOM      5  C13 UNL     1     -20.730 -30.752   5.894  0.00  0.00    +0.057 A 
ATOM      6  C14 UNL     1     -21.682 -29.737   5.617  0.00  0.00    +0.056 A 
ATOM      7  C15 UNL     1     -21.460 -28.825   4.456  0.00  0.00    +0.196 C 
ATOM      8  O2  UNL     1     -22.160 -27.785   4.318  0.00  0.00    -0.287 OA
ATOM      9  C16 UNL     1     -20.372 -29.091   3.492  0.00  0.00    +0.033 A 
ATOM     10  C17 UNL     1     -20.186 -28.257   2.373  0.00  0.00    +0.012 A 
ATOM     11  C18 UNL     1     -19.156 -28.511   1.465  0.00  0.00    +0.001 A 
ATOM     12  C19 UNL     1     -18.304 -29.597   1.660  0.00  0.00    +0.001 A 
ATOM     13  C20 UNL     1     -18.478 -30.433   2.765  0.00  0.00    +0.012 A 
ATOM     14  C21 UNL     1     -19.512 -30.186   3.690  0.00  0.00    +0.033 A 
ATOM     15  C22 UNL     1     -19.706 -31.076   4.856  0.00  0.00    +0.196 C 
ATOM     16  O3  UNL     1     -19.048 -32.149   4.918  0.00  0.00    -0.287 OA
ENDROOT
BRANCH   4  17
ATOM     17  N3  UNL     1     -19.766 -32.380   7.506  0.00  0.00    -0.356 N 
ATOM     18  H14 UNL     1     -19.954 -33.216   8.098  0.00  0.00    +0.142 HD
ATOM     19  H15 UNL     1     -18.768 -32.156   7.303  0.00  0.00    +0.142 HD
ENDBRANCH   4  17
BRANCH   3  20
ATOM     20  S1  UNL     1     -22.059 -32.125   9.524  0.00  0.00    +0.111 S 
ATOM     21  O4  UNL     1     -22.159 -33.602   9.262  0.00  0.00    -0.142 OA
ATOM     22  O5  UNL     1     -20.858 -31.837  10.381  0.00  0.00    -0.142 OA
BRANCH  20  23
ATOM     23  O6  UNL     1     -23.439 -31.618  10.341  0.00  0.00    -0.250 OA
ATOM     24  H16 UNL     1     -23.453 -32.152  11.176  0.00  0.00    +0.245 HD
ENDBRANCH  20  23
ENDBRANCH   3  20
BRANCH   1  25
ATOM     25  N2  UNL     1     -23.880 -28.690   6.164  0.00  0.00    -0.314 N 
ATOM     26  H8  UNL     1     -23.638 -27.800   5.673  0.00  0.00    +0.152 HD
BRANCH  25  30
ATOM     27  C3  UNL     1     -27.842 -29.212   7.643  0.00  0.00    +0.036 A 
ATOM     28  C4  UNL     1     -27.405 -29.896   6.499  0.00  0.00    +0.025 A 
ATOM     29  C5  UNL     1     -26.105 -29.714   6.019  0.00  0.00    +0.025 A 
ATOM     30  C6  UNL     1     -25.217 -28.850   6.677  0.00  0.00    +0.031 A 
ATOM     31  C7  UNL     1     -25.658 -28.160   7.822  0.00  0.00    +0.025 A 
ATOM     32  C8  UNL     1     -26.957 -28.343   8.302  0.00  0.00    +0.025 A 
BRANCH  27  36
ATOM     33  C1  UNL     1     -30.787 -30.546   9.795  0.00  0.00    +0.109 C 
ATOM     34  C2  UNL     1     -29.430 -30.388   9.177  0.00  0.00    +0.216 C 
ATOM     35  O1  UNL     1     -28.497 -31.141   9.572  0.00  0.00    -0.276 OA
ATOM     36  N1  UNL     1     -29.180 -29.409   8.143  0.00  0.00    -0.275 N 
ATOM     37  C23 UNL     1     -30.294 -28.701   7.504  0.00  0.00    +0.138 C 
ENDBRANCH  27  36
ENDBRANCH  25  30
ENDBRANCH   1  25
TORSDOF 6
ENDMDL
MODEL 8
REMARK minimizedAffinity -6.93021917
REMARK minimizedRMSD -1
REMARK  Name = /home/tchapet/Post-Doc/ARTICLES-DOSSIERS-DES-ARTICLES-EN-REDACTION/NOUVELS-AXES-DE-RECHERCHE-A-REGARDER-URGEMMENT/ARTICLES-EN-REDACTIONS/ARTICLE_MVOTO/Paper2_JCIM/docking_rerun/ligands/17574.pdb
REMARK  8 active torsions:
REMARK  status: ('A' for Active; 'I' for Inactive)
REMARK    1  A    between atoms: C1_1  and  C2_2
REMARK    2  A    between atoms: N1_4  and  C3_5
REMARK    3  A    between atoms: N1_4  and  C23_33
REMARK    4  A    between atoms: C6_8  and  N2_11
REMARK    5  A    between atoms: N2_11  and  C9_12
REMARK    6  A    between atoms: C11_14  and  S1_29
REMARK    7  A    between atoms: C12_15  and  N3_28
REMARK    8  A    between atoms: S1_29  and  O6_32
REMARK                            x       y       z     vdW  Elec       q    Type
REMARK                         _______ _______ _______ _____ _____    ______ ____
ROOT
ATOM      1  C9  UNL     1      -0.310  -9.215   3.720  0.00  0.00    +0.045 A 
ATOM      2  C10 UNL     1      -0.745 -10.499   4.043  0.00  0.00    +0.055 A 
ATOM      3  C11 UNL     1      -0.294 -11.147   5.191  0.00  0.00    +0.140 A 
ATOM      4  C12 UNL     1       0.657 -10.518   6.024  0.00  0.00    +0.064 A 
ATOM      5  C13 UNL     1       1.150  -9.226   5.682  0.00  0.00    +0.057 A 
ATOM      6  C14 UNL     1       0.595  -8.537   4.574  0.00  0.00    +0.056 A 
ATOM      7  C15 UNL     1       0.943  -7.102   4.357  0.00  0.00    +0.196 C 
ATOM      8  O2  UNL     1       0.301  -6.407   3.524  0.00  0.00    -0.287 OA
ATOM      9  C16 UNL     1       2.000  -6.457   5.165  0.00  0.00    +0.033 A 
ATOM     10  C17 UNL     1       2.361  -5.116   4.935  0.00  0.00    +0.012 A 
ATOM     11  C18 UNL     1       3.359  -4.510   5.700  0.00  0.00    +0.001 A 
ATOM     12  C19 UNL     1       4.008  -5.233   6.700  0.00  0.00    +0.001 A 
ATOM     13  C20 UNL     1       3.661  -6.565   6.938  0.00  0.00    +0.012 A 
ATOM     14  C21 UNL     1       2.654  -7.187   6.174  0.00  0.00    +0.033 A 
ATOM     15  C22 UNL     1       2.290  -8.600   6.416  0.00  0.00    +0.196 C 
ATOM     16  O3  UNL     1       3.007  -9.287   7.193  0.00  0.00    -0.287 OA
ENDROOT
BRANCH   4  17
ATOM     17  N3  UNL     1       1.068 -11.159   7.242  0.00  0.00    -0.356 N 
ATOM     18  H14 UNL     1       1.112 -12.197   7.327  0.00  0.00    +0.142 HD
ATOM     19  H15 UNL     1       1.222 -10.605   8.112  0.00  0.00    +0.142 HD
ENDBRANCH   4  17
BRANCH   3  20
ATOM     20  S1  UNL     1      -0.956 -12.744   5.573  0.00  0.00    +0.111 S 
ATOM     21  O4  UNL     1       0.139 -13.771   5.492  0.00  0.00    -0.142 OA
ATOM     22  O5  UNL     1      -1.542 -12.728   6.957  0.00  0.00    -0.142 OA
BRANCH  20  23
ATOM     23  O6  UNL     1      -2.169 -13.149   4.480  0.00  0.00    -0.250 OA
ATOM     24  H16 UNL     1      -2.472 -14.051   4.756  0.00  0.00    +0.245 HD
ENDBRANCH  20  23
ENDBRANCH   3  20
BRANCH   1  25
ATOM     25  N2  UNL     1      -0.786  -8.632   2.497  0.00  0.00    -0.314 N 
ATOM     26  H8  UNL     1      -1.198  -7.673   2.552  0.00  0.00    +0.152 HD
BRANCH  25  30
ATOM     27  C3  UNL     1      -1.118 -10.819  -1.145  0.00  0.00    +0.036 A 
ATOM     28  C4  UNL     1       0.135 -10.421  -0.657  0.00  0.00    +0.025 A 
ATOM     29  C5  UNL     1       0.233  -9.699   0.536  0.00  0.00    +0.025 A 
ATOM     30  C6  UNL     1      -0.919  -9.368   1.266  0.00  0.00    +0.031 A 
ATOM     31  C7  UNL     1      -2.177  -9.764   0.773  0.00  0.00    +0.025 A 
ATOM     32  C8  UNL     1      -2.274 -10.486  -0.420  0.00  0.00    +0.025 A 
BRANCH  27  36
ATOM     33  C1  UNL     1      -1.554 -11.633  -4.917  0.00  0.00    +0.109 C 
ATOM     34  C2  UNL     1      -1.545 -10.902  -3.608  0.00  0.00    +0.216 C 
ATOM     35  O1  UNL     1      -1.843  -9.676  -3.602  0.00  0.00    -0.276 OA
ATOM     36  N1  UNL     1      -1.217 -11.572  -2.370  0.00  0.00    -0.275 N 
ATOM     37  C23 UNL     1      -1.110 -13.034  -2.322  0.00  0.00    +0.138 C 
ENDBRANCH  27  36
ENDBRANCH  25  30
ENDBRANCH   1  25
TORSDOF 6
ENDMDL
MODEL 9
REMARK minimizedAffinity -6.91339731
REMARK minimizedRMSD -1
REMARK  Name = /home/tchapet/Post-Doc/ARTICLES-DOSSIERS-DES-ARTICLES-EN-REDACTION/NOUVELS-AXES-DE-RECHERCHE-A-REGARDER-URGEMMENT/ARTICLES-EN-REDACTIONS/ARTICLE_MVOTO/Paper2_JCIM/docking_rerun/ligands/17574.pdb
REMARK  8 active torsions:
REMARK  status: ('A' for Active; 'I' for Inactive)
REMARK    1  A    between atoms: C1_1  and  C2_2
REMARK    2  A    between atoms: N1_4  and  C3_5
REMARK    3  A    between atoms: N1_4  and  C23_33
REMARK    4  A    between atoms: C6_8  and  N2_11
REMARK    5  A    between atoms: N2_11  and  C9_12
REMARK    6  A    between atoms: C11_14  and  S1_29
REMARK    7  A    between atoms: C12_15  and  N3_28
REMARK    8  A    between atoms: S1_29  and  O6_32
REMARK                            x       y       z     vdW  Elec       q    Type
REMARK                         _______ _______ _______ _____ _____    ______ ____
ROOT
ATOM      1  C9  UNL     1       2.959  -4.597   3.128  0.00  0.00    +0.045 A 
ATOM      2  C10 UNL     1       2.133  -5.079   2.115  0.00  0.00    +0.055 A 
ATOM      3  C11 UNL     1       2.116  -4.487   0.853  0.00  0.00    +0.140 A 
ATOM      4  C12 UNL     1       2.914  -3.349   0.601  0.00  0.00    +0.064 A 
ATOM      5  C13 UNL     1       3.727  -2.814   1.640  0.00  0.00    +0.057 A 
ATOM      6  C14 UNL     1       3.817  -3.497   2.880  0.00  0.00    +0.056 A 
ATOM      7  C15 UNL     1       4.841  -3.067   3.877  0.00  0.00    +0.196 C 
ATOM      8  O2  UNL     1       5.095  -3.785   4.882  0.00  0.00    -0.287 OA
ATOM      9  C16 UNL     1       5.620  -1.829   3.666  0.00  0.00    +0.033 A 
ATOM     10  C17 UNL     1       6.556  -1.398   4.625  0.00  0.00    +0.012 A 
ATOM     11  C18 UNL     1       7.291  -0.229   4.422  0.00  0.00    +0.001 A 
ATOM     12  C19 UNL     1       7.099   0.524   3.264  0.00  0.00    +0.001 A 
ATOM     13  C20 UNL     1       6.173   0.109   2.305  0.00  0.00    +0.012 A 
ATOM     14  C21 UNL     1       5.428  -1.071   2.497  0.00  0.00    +0.033 A 
ATOM     15  C22 UNL     1       4.437  -1.508   1.489  0.00  0.00    +0.196 C 
ATOM     16  O3  UNL     1       4.148  -0.726   0.543  0.00  0.00    -0.287 OA
ENDROOT
BRANCH   4  17
ATOM     17  N3  UNL     1       2.946  -2.783  -0.719  0.00  0.00    -0.356 N 
ATOM     18  H14 UNL     1       2.116  -2.817  -1.350  0.00  0.00    +0.142 HD
ATOM     19  H15 UNL     1       3.837  -2.427  -1.125  0.00  0.00    +0.142 HD
ENDBRANCH   4  17
BRANCH   3  20
ATOM     20  S1  UNL     1       1.097  -5.208  -0.404  0.00  0.00    +0.111 S 
ATOM     21  O4  UNL     1       1.954  -5.610  -1.572  0.00  0.00    -0.142 OA
ATOM     22  O5  UNL     1       0.391  -6.412   0.152  0.00  0.00    -0.142 OA
BRANCH  20  23
ATOM     23  O6  UNL     1      -0.056  -4.099  -0.925  0.00  0.00    -0.250 OA
ATOM     24  H16 UNL     1      -0.568  -4.575  -1.628  0.00  0.00    +0.245 HD
ENDBRANCH  20  23
ENDBRANCH   3  20
BRANCH   1  25
ATOM     25  N2  UNL     1       2.887  -5.232   4.413  0.00  0.00    -0.314 N 
ATOM     26  H8  UNL     1       3.632  -4.996   5.107  0.00  0.00    +0.152 HD
BRANCH  25  30
ATOM     27  C3  UNL     1       0.274  -8.478   5.301  0.00  0.00    +0.036 A 
ATOM     28  C4  UNL     1       1.607  -8.708   4.929  0.00  0.00    +0.025 A 
ATOM     29  C5  UNL     1       2.454  -7.637   4.635  0.00  0.00    +0.025 A 
ATOM     30  C6  UNL     1       1.987  -6.317   4.713  0.00  0.00    +0.031 A 
ATOM     31  C7  UNL     1       0.648  -6.086   5.080  0.00  0.00    +0.025 A 
ATOM     32  C8  UNL     1      -0.199  -7.158   5.375  0.00  0.00    +0.025 A 
BRANCH  27  36
ATOM     33  C1  UNL     1      -1.730 -11.092   7.359  0.00  0.00    +0.109 C 
ATOM     34  C2  UNL     1      -0.754 -10.016   6.984  0.00  0.00    +0.216 C 
ATOM     35  O1  UNL     1      -0.056  -9.493   7.895  0.00  0.00    -0.276 OA
ATOM     36  N1  UNL     1      -0.597  -9.584   5.614  0.00  0.00    -0.275 N 
ATOM     37  C23 UNL     1      -1.214 -10.341   4.520  0.00  0.00    +0.138 C 
ENDBRANCH  27  36
ENDBRANCH  25  30
ENDBRANCH   1  25
TORSDOF 6
ENDMDL
