MODEL 1
REMARK minimizedAffinity -7.21121407
REMARK minimizedRMSD -1
REMARK  Name = /home/tchapet/Post-Doc/ARTICLES-DOSSIERS-DES-ARTICLES-EN-REDACTION/NOUVELS-AXES-DE-RECHERCHE-A-REGARDER-URGEMMENT/ARTICLES-EN-REDACTIONS/ARTICLE_MVOTO/Paper2_JCIM/docking_rerun/ligands/17574.pdb
REMARK  8 active torsions:
REMARK  status: ('A' for Active; 'I' for Inactive)
REMARK    1  A    between atoms: C1_1  and  C2_2
REMARK    2  A    between atoms: N1_4  and  C3_5
REMARK    3  A    between atoms: N1_4  and  C23_33
REMARK    4  A    between atoms: C6_8  and  N2_11
REMARK    5  A    between atoms: N2_11  and  C9_12
REMARK    6  A    between atoms: C11_14  and  S1_29
REMARK    7  A    between atoms: C12_15  and  N3_28
REMARK    8  A    between atoms: S1_29  and  O6_32
REMARK                            x       y       z     vdW  Elec       q    Type
REMARK                         _______ _______ _______ _____ _____    ______ ____
ROOT
ATOM      1  C9  UNL     1      -0.189 -17.183  12.393  0.00  0.00    +0.045 A 
ATOM      2  C10 UNL     1      -1.379 -16.680  11.871  0.00  0.00    +0.055 A 
ATOM      3  C11 UNL     1      -1.736 -16.900  10.542  0.00  0.00    +0.140 A 
ATOM      4  C12 UNL     1      -0.859 -17.605   9.688  0.00  0.00    +0.064 A 
ATOM      5  C13 UNL     1       0.384 -18.084  10.192  0.00  0.00    +0.057 A 
ATOM      6  C14 UNL     1       0.676 -17.950  11.574  0.00  0.00    +0.056 A 
ATOM      7  C15 UNL     1       1.865 -18.653  12.140  0.00  0.00    +0.196 C 
ATOM      8  O2  UNL     1       2.023 -18.736  13.388  0.00  0.00    -0.287 OA
ATOM      9  C16 UNL     1       2.837 -19.320  11.248  0.00  0.00    +0.033 A 
ATOM     10  C17 UNL     1       3.981 -19.947  11.775  0.00  0.00    +0.012 A 
ATOM     11  C18 UNL     1       4.896 -20.577  10.930  0.00  0.00    +0.001 A 
ATOM     12  C19 UNL     1       4.682 -20.586   9.552  0.00  0.00    +0.001 A 
ATOM     13  C20 UNL     1       3.552 -19.966   9.015  0.00  0.00    +0.012 A 
ATOM     14  C21 UNL     1       2.620 -19.330   9.858  0.00  0.00    +0.033 A 
ATOM     15  C22 UNL     1       1.426 -18.663   9.293  0.00  0.00    +0.196 C 
ATOM     16  O3  UNL     1       1.344 -18.523   8.042  0.00  0.00    -0.287 OA
ENDROOT
BRANCH   4  17
ATOM     17  N3  UNL     1      -1.260 -17.889   8.338  0.00  0.00    -0.356 N 
ATOM     18  H14 UNL     1      -1.878 -17.243   7.803  0.00  0.00    +0.142 HD
ATOM     19  H15 UNL     1      -1.037 -18.808   7.897  0.00  0.00    +0.142 HD
ENDBRANCH   4  17
BRANCH   3  20
ATOM     20  S1  UNL     1      -3.301 -16.296   9.977  0.00  0.00    +0.111 S 
ATOM     21  O4  UNL     1      -4.127 -17.445   9.470  0.00  0.00    -0.142 OA
ATOM     22  O5  UNL     1      -4.015 -15.613  11.110  0.00  0.00    -0.142 OA
BRANCH  20  23
ATOM     23  O6  UNL     1      -3.082 -15.186   8.731  0.00  0.00    -0.250 OA
ATOM     24  H16 UNL     1      -3.998 -14.912   8.470  0.00  0.00    +0.245 HD
ENDBRANCH  20  23
ENDBRANCH   3  20
BRANCH   1  25
ATOM     25  N2  UNL     1       0.129 -16.877  13.759  0.00  0.00    -0.314 N 
ATOM     26  H8  UNL     1       0.515 -17.649  14.347  0.00  0.00    +0.152 HD
BRANCH  25  30
ATOM     27  C3  UNL     1      -1.022 -13.271  15.717  0.00  0.00    +0.036 A 
ATOM     28  C4  UNL     1      -1.515 -14.512  16.146  0.00  0.00    +0.025 A 
ATOM     29  C5  UNL     1      -1.135 -15.688  15.494  0.00  0.00    +0.025 A 
ATOM     30  C6  UNL     1      -0.252 -15.646  14.405  0.00  0.00    +0.031 A 
ATOM     31  C7  UNL     1       0.239 -14.400  13.971  0.00  0.00    +0.025 A 
ATOM     32  C8  UNL     1      -0.140 -13.225  14.624  0.00  0.00    +0.025 A 
BRANCH  27  36
ATOM     33  C1  UNL     1      -0.825 -10.129  17.991  0.00  0.00    +0.109 C 
ATOM     34  C2  UNL     1      -0.505 -11.444  17.344  0.00  0.00    +0.216 C 
ATOM     35  O1  UNL     1       0.575 -12.019  17.653  0.00  0.00    -0.276 OA
ATOM     36  N1  UNL     1      -1.406 -12.059  16.397  0.00  0.00    -0.275 N 
ATOM     37  C23 UNL     1      -2.763 -11.534  16.213  0.00  0.00    +0.138 C 
ENDBRANCH  27  36
ENDBRANCH  25  30
ENDBRANCH   1  25
TORSDOF 6
ENDMDL
MODEL 2
REMARK minimizedAffinity -6.96810007
REMARK minimizedRMSD -1
REMARK  Name = /home/tchapet/Post-Doc/ARTICLES-DOSSIERS-DES-ARTICLES-EN-REDACTION/NOUVELS-AXES-DE-RECHERCHE-A-REGARDER-URGEMMENT/ARTICLES-EN-REDACTIONS/ARTICLE_MVOTO/Paper2_JCIM/docking_rerun/ligands/17574.pdb
REMARK  8 active torsions:
REMARK  status: ('A' for Active; 'I' for Inactive)
REMARK    1  A    between atoms: C1_1  and  C2_2
REMARK    2  A    between atoms: N1_4  and  C3_5
REMARK    3  A    between atoms: N1_4  and  C23_33
REMARK    4  A    between atoms: C6_8  and  N2_11
REMARK    5  A    between atoms: N2_11  and  C9_12
REMARK    6  A    between atoms: C11_14  and  S1_29
REMARK    7  A    between atoms: C12_15  and  N3_28
REMARK    8  A    between atoms: S1_29  and  O6_32
REMARK                            x       y       z     vdW  Elec       q    Type
REMARK                         _______ _______ _______ _____ _____    ______ ____
ROOT
ATOM      1  C9  UNL     1       9.710 -12.015  28.076  0.00  0.00    +0.045 A 
ATOM      2  C10 UNL     1       8.893 -11.123  28.768  0.00  0.00    +0.055 A 
ATOM      3  C11 UNL     1       7.512 -11.305  28.825  0.00  0.00    +0.140 A 
ATOM      4  C12 UNL     1       6.916 -12.382  28.133  0.00  0.00    +0.064 A 
ATOM      5  C13 UNL     1       7.732 -13.274  27.380  0.00  0.00    +0.057 A 
ATOM      6  C14 UNL     1       9.144 -13.140  27.428  0.00  0.00    +0.056 A 
ATOM      7  C15 UNL     1       9.999 -14.208  26.831  0.00  0.00    +0.196 C 
ATOM      8  O2  UNL     1      11.241 -14.230  27.052  0.00  0.00    -0.287 OA
ATOM      9  C16 UNL     1       9.394 -15.293  26.030  0.00  0.00    +0.033 A 
ATOM     10  C17 UNL     1      10.202 -16.277  25.430  0.00  0.00    +0.012 A 
ATOM     11  C18 UNL     1       9.627 -17.301  24.675  0.00  0.00    +0.001 A 
ATOM     12  C19 UNL     1       8.244 -17.353  24.508  0.00  0.00    +0.001 A 
ATOM     13  C20 UNL     1       7.431 -16.381  25.096  0.00  0.00    +0.012 A 
ATOM     14  C21 UNL     1       7.999 -15.345  25.863  0.00  0.00    +0.033 A 
ATOM     15  C22 UNL     1       7.142 -14.308  26.478  0.00  0.00    +0.196 C 
ATOM     16  O3  UNL     1       5.921 -14.266  26.168  0.00  0.00    -0.287 OA
ENDROOT
BRANCH   4  17
ATOM     17  N3  UNL     1       5.503 -12.605  28.250  0.00  0.00    -0.356 N 
ATOM     18  H14 UNL     1       4.832 -11.818  28.381  0.00  0.00    +0.142 HD
ATOM     19  H15 UNL     1       5.119 -13.572  28.323  0.00  0.00    +0.142 HD
ENDBRANCH   4  17
BRANCH   3  20
ATOM     20  S1  UNL     1       6.552 -10.174  29.792  0.00  0.00    +0.111 S 
ATOM     21  O4  UNL     1       5.993 -10.890  30.989  0.00  0.00    -0.142 OA
ATOM     22  O5  UNL     1       7.420  -9.031  30.238  0.00  0.00    -0.142 OA
BRANCH  20  23
ATOM     23  O6  UNL     1       5.280  -9.559  28.877  0.00  0.00    -0.250 OA
ATOM     24  H16 UNL     1       4.794  -8.952  29.491  0.00  0.00    +0.245 HD
ENDBRANCH  20  23
ENDBRANCH   3  20
BRANCH   1  25
ATOM     25  N2  UNL     1      11.118 -11.736  28.026  0.00  0.00    -0.314 N 
ATOM     26  H8  UNL     1      11.766 -12.471  28.388  0.00  0.00    +0.152 HD
BRANCH  25  30
ATOM     27  C3  UNL     1      12.765  -7.908  27.135  0.00  0.00    +0.036 A 
ATOM     28  C4  UNL     1      13.264  -8.677  28.197  0.00  0.00    +0.025 A 
ATOM     29  C5  UNL     1      12.714  -9.929  28.484  0.00  0.00    +0.025 A 
ATOM     30  C6  UNL     1      11.659 -10.438  27.712  0.00  0.00    +0.031 A 
ATOM     31  C7  UNL     1      11.155  -9.664  26.649  0.00  0.00    +0.025 A 
ATOM     32  C8  UNL     1      11.707  -8.413  26.362  0.00  0.00    +0.025 A 
BRANCH  27  36
ATOM     33  C1  UNL     1      13.848  -4.199  27.526  0.00  0.00    +0.109 C 
ATOM     34  C2  UNL     1      13.176  -5.520  27.754  0.00  0.00    +0.216 C 
ATOM     35  O1  UNL     1      12.445  -5.655  28.774  0.00  0.00    -0.276 OA
ATOM     36  N1  UNL     1      13.341  -6.621  26.833  0.00  0.00    -0.275 N 
ATOM     37  C23 UNL     1      13.980  -6.411  25.529  0.00  0.00    +0.138 C 
ENDBRANCH  27  36
ENDBRANCH  25  30
ENDBRANCH   1  25
TORSDOF 6
ENDMDL
MODEL 3
REMARK minimizedAffinity -6.9442997
REMARK minimizedRMSD -1
REMARK  Name = /home/tchapet/Post-Doc/ARTICLES-DOSSIERS-DES-ARTICLES-EN-REDACTION/NOUVELS-AXES-DE-RECHERCHE-A-REGARDER-URGEMMENT/ARTICLES-EN-REDACTIONS/ARTICLE_MVOTO/Paper2_JCIM/docking_rerun/ligands/17574.pdb
REMARK  8 active torsions:
REMARK  status: ('A' for Active; 'I' for Inactive)
REMARK    1  A    between atoms: C1_1  and  C2_2
REMARK    2  A    between atoms: N1_4  and  C3_5
REMARK    3  A    between atoms: N1_4  and  C23_33
REMARK    4  A    between atoms: C6_8  and  N2_11
REMARK    5  A    between atoms: N2_11  and  C9_12
REMARK    6  A    between atoms: C11_14  and  S1_29
REMARK    7  A    between atoms: C12_15  and  N3_28
REMARK    8  A    between atoms: S1_29  and  O6_32
REMARK                            x       y       z     vdW  Elec       q    Type
REMARK                         _______ _______ _______ _____ _____    ______ ____
ROOT
ATOM      1  C9  UNL     1      -0.145  -2.035   2.027  0.00  0.00    +0.045 A 
ATOM      2  C10 UNL     1       0.547  -3.171   2.441  0.00  0.00    +0.055 A 
ATOM      3  C11 UNL     1      -0.113  -4.240   3.043  0.00  0.00    +0.140 A 
ATOM      4  C12 UNL     1      -1.502  -4.160   3.285  0.00  0.00    +0.064 A 
ATOM      5  C13 UNL     1      -2.217  -2.986   2.913  0.00  0.00    +0.057 A 
ATOM      6  C14 UNL     1      -1.549  -1.958   2.199  0.00  0.00    +0.056 A 
ATOM      7  C15 UNL     1      -2.347  -0.841   1.611  0.00  0.00    +0.196 C 
ATOM      8  O2  UNL     1      -1.818  -0.043   0.790  0.00  0.00    -0.287 OA
ATOM      9  C16 UNL     1      -3.783  -0.698   1.928  0.00  0.00    +0.033 A 
ATOM     10  C17 UNL     1      -4.528   0.378   1.408  0.00  0.00    +0.012 A 
ATOM     11  C18 UNL     1      -5.884   0.510   1.710  0.00  0.00    +0.001 A 
ATOM     12  C19 UNL     1      -6.512  -0.425   2.531  0.00  0.00    +0.001 A 
ATOM     13  C20 UNL     1      -5.784  -1.497   3.055  0.00  0.00    +0.012 A 
ATOM     14  C21 UNL     1      -4.415  -1.642   2.756  0.00  0.00    +0.033 A 
ATOM     15  C22 UNL     1      -3.639  -2.770   3.317  0.00  0.00    +0.196 C 
ATOM     16  O3  UNL     1      -4.173  -3.497   4.197  0.00  0.00    -0.287 OA
ENDROOT
BRANCH   4  17
ATOM     17  N3  UNL     1      -2.191  -5.290   3.844  0.00  0.00    -0.356 N 
ATOM     18  H14 UNL     1      -1.724  -5.943   4.508  0.00  0.00    +0.142 HD
ATOM     19  H15 UNL     1      -3.143  -5.554   3.508  0.00  0.00    +0.142 HD
ENDBRANCH   4  17
BRANCH   3  20
ATOM     20  S1  UNL     1       0.825  -5.680   3.468  0.00  0.00    +0.111 S 
ATOM     21  O4  UNL     1       0.380  -6.835   2.615  0.00  0.00    -0.142 OA
ATOM     22  O5  UNL     1       2.287  -5.412   3.245  0.00  0.00    -0.142 OA
BRANCH  20  23
ATOM     23  O6  UNL     1       0.591  -6.072   5.087  0.00  0.00    -0.250 OA
ATOM     24  H16 UNL     1       1.136  -6.886   5.235  0.00  0.00    +0.245 HD
ENDBRANCH  20  23
ENDBRANCH   3  20
BRANCH   1  25
ATOM     25  N2  UNL     1       0.612  -0.957   1.455  0.00  0.00    -0.314 N 
ATOM     26  H8  UNL     1       0.323   0.016   1.701  0.00  0.00    +0.152 HD
BRANCH  25  30
ATOM     27  C3  UNL     1       3.548  -1.490  -1.588  0.00  0.00    +0.036 A 
ATOM     28  C4  UNL     1       3.902  -0.994  -0.325  0.00  0.00    +0.025 A 
ATOM     29  C5  UNL     1       2.931  -0.818   0.664  0.00  0.00    +0.025 A 
ATOM     30  C6  UNL     1       1.589  -1.140   0.412  0.00  0.00    +0.031 A 
ATOM     31  C7  UNL     1       1.233  -1.633  -0.858  0.00  0.00    +0.025 A 
ATOM     32  C8  UNL     1       2.205  -1.810  -1.846  0.00  0.00    +0.025 A 
BRANCH  27  36
ATOM     33  C1  UNL     1       5.875  -0.779  -4.615  0.00  0.00    +0.109 C 
ATOM     34  C2  UNL     1       4.770  -0.664  -3.607  0.00  0.00    +0.216 C 
ATOM     35  O1  UNL     1       4.015   0.347  -3.655  0.00  0.00    -0.276 OA
ATOM     36  N1  UNL     1       4.552  -1.681  -2.605  0.00  0.00    -0.275 N 
ATOM     37  C23 UNL     1       5.254  -2.966  -2.685  0.00  0.00    +0.138 C 
ENDBRANCH  27  36
ENDBRANCH  25  30
ENDBRANCH   1  25
TORSDOF 6
ENDMDL
MODEL 4
REMARK minimizedAffinity -6.81462049
REMARK minimizedRMSD -1
REMARK  Name = /home/tchapet/Post-Doc/ARTICLES-DOSSIERS-DES-ARTICLES-EN-REDACTION/NOUVELS-AXES-DE-RECHERCHE-A-REGARDER-URGEMMENT/ARTICLES-EN-REDACTIONS/ARTICLE_MVOTO/Paper2_JCIM/docking_rerun/ligands/17574.pdb
REMARK  8 active torsions:
REMARK  status: ('A' for Active; 'I' for Inactive)
REMARK    1  A    between atoms: C1_1  and  C2_2
REMARK    2  A    between atoms: N1_4  and  C3_5
REMARK    3  A    between atoms: N1_4  and  C23_33
REMARK    4  A    between atoms: C6_8  and  N2_11
REMARK    5  A    between atoms: N2_11  and  C9_12
REMARK    6  A    between atoms: C11_14  and  S1_29
REMARK    7  A    between atoms: C12_15  and  N3_28
REMARK    8  A    between atoms: S1_29  and  O6_32
REMARK                            x       y       z     vdW  Elec       q    Type
REMARK                         _______ _______ _______ _____ _____    ______ ____
ROOT
ATOM      1  C9  UNL     1       5.523 -17.435  24.497  0.00  0.00    +0.045 A 
ATOM      2  C10 UNL     1       4.155 -17.476  24.238  0.00  0.00    +0.055 A 
ATOM      3  C11 UNL     1       3.312 -16.440  24.637  0.00  0.00    +0.140 A 
ATOM      4  C12 UNL     1       3.838 -15.347  25.359  0.00  0.00    +0.064 A 
ATOM      5  C13 UNL     1       5.226 -15.313  25.676  0.00  0.00    +0.057 A 
ATOM      6  C14 UNL     1       6.086 -16.318  25.162  0.00  0.00    +0.056 A 
ATOM      7  C15 UNL     1       7.563 -16.155  25.299  0.00  0.00    +0.196 C 
ATOM      8  O2  UNL     1       8.350 -16.908  24.664  0.00  0.00    -0.287 OA
ATOM      9  C16 UNL     1       8.124 -15.065  26.125  0.00  0.00    +0.033 A 
ATOM     10  C17 UNL     1       9.516 -14.934  26.290  0.00  0.00    +0.012 A 
ATOM     11  C18 UNL     1      10.042 -13.903  27.070  0.00  0.00    +0.001 A 
ATOM     12  C19 UNL     1       9.188 -12.994  27.695  0.00  0.00    +0.001 A 
ATOM     13  C20 UNL     1       7.805 -13.114  27.540  0.00  0.00    +0.012 A 
ATOM     14  C21 UNL     1       7.262 -14.148  26.754  0.00  0.00    +0.033 A 
ATOM     15  C22 UNL     1       5.798 -14.284  26.596  0.00  0.00    +0.196 C 
ATOM     16  O3  UNL     1       5.041 -13.572  27.310  0.00  0.00    -0.287 OA
ENDROOT
BRANCH   4  17
ATOM     17  N3  UNL     1       2.980 -14.250  25.710  0.00  0.00    -0.356 N 
ATOM     18  H14 UNL     1       1.967 -14.388  25.910  0.00  0.00    +0.142 HD
ATOM     19  H15 UNL     1       3.324 -13.266  25.659  0.00  0.00    +0.142 HD
ENDBRANCH   4  17
BRANCH   3  20
ATOM     20  S1  UNL     1       1.599 -16.531  24.199  0.00  0.00    +0.111 S 
ATOM     21  O4  UNL     1       1.346 -17.796  23.427  0.00  0.00    -0.142 OA
ATOM     22  O5  UNL     1       0.760 -16.515  25.446  0.00  0.00    -0.142 OA
BRANCH  20  23
ATOM     23  O6  UNL     1       1.171 -15.212  23.246  0.00  0.00    -0.250 OA
ATOM     24  H16 UNL     1       0.211 -15.347  23.039  0.00  0.00    +0.245 HD
ENDBRANCH  20  23
ENDBRANCH   3  20
BRANCH   1  25
ATOM     25  N2  UNL     1       6.318 -18.561  24.093  0.00  0.00    -0.314 N 
ATOM     26  H8  UNL     1       7.054 -18.891  24.757  0.00  0.00    +0.152 HD
BRANCH  25  30
ATOM     27  C3  UNL     1       6.303 -20.135  20.134  0.00  0.00    +0.036 A 
ATOM     28  C4  UNL     1       6.884 -18.889  20.410  0.00  0.00    +0.025 A 
ATOM     29  C5  UNL     1       6.880 -18.379  21.711  0.00  0.00    +0.025 A 
ATOM     30  C6  UNL     1       6.299 -19.108  22.760  0.00  0.00    +0.031 A 
ATOM     31  C7  UNL     1       5.711 -20.356  22.481  0.00  0.00    +0.025 A 
ATOM     32  C8  UNL     1       5.717 -20.865  21.180  0.00  0.00    +0.025 A 
BRANCH  27  36
ATOM     33  C1  UNL     1       5.320 -20.742  16.426  0.00  0.00    +0.109 C 
ATOM     34  C2  UNL     1       5.280 -20.296  17.857  0.00  0.00    +0.216 C 
ATOM     35  O1  UNL     1       4.306 -19.590  18.240  0.00  0.00    -0.276 OA
ATOM     36  N1  UNL     1       6.318 -20.664  18.792  0.00  0.00    -0.275 N 
ATOM     37  C23 UNL     1       7.318 -21.675  18.433  0.00  0.00    +0.138 C 
ENDBRANCH  27  36
ENDBRANCH  25  30
ENDBRANCH   1  25
TORSDOF 6
ENDMDL
MODEL 5
REMARK minimizedAffinity -6.80096626
REMARK minimizedRMSD -1
REMARK  Name = /home/tchapet/Post-Doc/ARTICLES-DOSSIERS-DES-ARTICLES-EN-REDACTION/NOUVELS-AXES-DE-RECHERCHE-A-REGARDER-URGEMMENT/ARTICLES-EN-REDACTIONS/ARTICLE_MVOTO/Paper2_JCIM/docking_rerun/ligands/17574.pdb
REMARK  8 active torsions:
REMARK  status: ('A' for Active; 'I' for Inactive)
REMARK    1  A    between atoms: C1_1  and  C2_2
REMARK    2  A    between atoms: N1_4  and  C3_5
REMARK    3  A    between atoms: N1_4  and  C23_33
REMARK    4  A    between atoms: C6_8  and  N2_11
REMARK    5  A    between atoms: N2_11  and  C9_12
REMARK    6  A    between atoms: C11_14  and  S1_29
REMARK    7  A    between atoms: C12_15  and  N3_28
REMARK    8  A    between atoms: S1_29  and  O6_32
REMARK                            x       y       z     vdW  Elec       q    Type
REMARK                         _______ _______ _______ _____ _____    ______ ____
ROOT
ATOM      1  C9  UNL     1      -9.390   2.413  19.428  0.00  0.00    +0.045 A 
ATOM      2  C10 UNL     1     -10.004   1.846  18.313  0.00  0.00    +0.055 A 
ATOM      3  C11 UNL     1     -10.488   0.540  18.341  0.00  0.00    +0.140 A 
ATOM      4  C12 UNL     1     -10.317  -0.247  19.501  0.00  0.00    +0.064 A 
ATOM      5  C13 UNL     1      -9.648   0.301  20.632  0.00  0.00    +0.057 A 
ATOM      6  C14 UNL     1      -9.265   1.666  20.625  0.00  0.00    +0.056 A 
ATOM      7  C15 UNL     1      -8.778   2.295  21.888  0.00  0.00    +0.196 C 
ATOM      8  O2  UNL     1      -8.644   3.546  21.969  0.00  0.00    -0.287 OA
ATOM      9  C16 UNL     1      -8.511   1.467  23.083  0.00  0.00    +0.033 A 
ATOM     10  C17 UNL     1      -8.011   2.050  24.263  0.00  0.00    +0.012 A 
ATOM     11  C18 UNL     1      -7.762   1.265  25.390  0.00  0.00    +0.001 A 
ATOM     12  C19 UNL     1      -8.004  -0.107  25.353  0.00  0.00    +0.001 A 
ATOM     13  C20 UNL     1      -8.498  -0.699  24.188  0.00  0.00    +0.012 A 
ATOM     14  C21 UNL     1      -8.757   0.083  23.046  0.00  0.00    +0.033 A 
ATOM     15  C22 UNL     1      -9.270  -0.542  21.807  0.00  0.00    +0.196 C 
ATOM     16  O3  UNL     1      -9.310  -1.800  21.732  0.00  0.00    -0.287 OA
ENDROOT
BRANCH   4  17
ATOM     17  N3  UNL     1     -10.877  -1.569  19.551  0.00  0.00    -0.356 N 
ATOM     18  H14 UNL     1     -10.963  -2.160  18.696  0.00  0.00    +0.142 HD
ATOM     19  H15 UNL     1     -11.320  -1.928  20.423  0.00  0.00    +0.142 HD
ENDBRANCH   4  17
BRANCH   3  20
ATOM     20  S1  UNL     1     -11.326  -0.080  16.909  0.00  0.00    +0.111 S 
ATOM     21  O4  UNL     1     -12.779  -0.292  17.234  0.00  0.00    -0.142 OA
ATOM     22  O5  UNL     1     -11.192   0.905  15.782  0.00  0.00    -0.142 OA
BRANCH  20  23
ATOM     23  O6  UNL     1     -10.653  -1.545  16.429  0.00  0.00    -0.250 OA
ATOM     24  H16 UNL     1     -11.183  -1.823  15.639  0.00  0.00    +0.245 HD
ENDBRANCH  20  23
ENDBRANCH   3  20
BRANCH   1  25
ATOM     25  N2  UNL     1      -8.877   3.749  19.306  0.00  0.00    -0.314 N 
ATOM     26  H8  UNL     1      -8.513   4.204  20.174  0.00  0.00    +0.152 HD
BRANCH  25  30
ATOM     27  C3  UNL     1      -9.296   6.103  15.779  0.00  0.00    +0.036 A 
ATOM     28  C4  UNL     1      -8.163   5.300  15.979  0.00  0.00    +0.025 A 
ATOM     29  C5  UNL     1      -8.033   4.536  17.141  0.00  0.00    +0.025 A 
ATOM     30  C6  UNL     1      -9.035   4.555  18.122  0.00  0.00    +0.031 A 
ATOM     31  C7  UNL     1     -10.169   5.365  17.924  0.00  0.00    +0.025 A 
ATOM     32  C8  UNL     1     -10.299   6.128  16.761  0.00  0.00    +0.025 A 
BRANCH  27  36
ATOM     33  C1  UNL     1     -10.534   7.249  12.281  0.00  0.00    +0.109 C 
ATOM     34  C2  UNL     1     -10.284   6.416  13.503  0.00  0.00    +0.216 C 
ATOM     35  O1  UNL     1     -10.828   5.280  13.578  0.00  0.00    -0.276 OA
ATOM     36  N1  UNL     1      -9.433   6.883  14.574  0.00  0.00    -0.275 N 
ATOM     37  C23 UNL     1      -8.604   8.080  14.398  0.00  0.00    +0.138 C 
ENDBRANCH  27  36
ENDBRANCH  25  30
ENDBRANCH   1  25
TORSDOF 6
ENDMDL
MODEL 6
REMARK minimizedAffinity -6.76478767
REMARK minimizedRMSD -1
REMARK  Name = /home/tchapet/Post-Doc/ARTICLES-DOSSIERS-DES-ARTICLES-EN-REDACTION/NOUVELS-AXES-DE-RECHERCHE-A-REGARDER-URGEMMENT/ARTICLES-EN-REDACTIONS/ARTICLE_MVOTO/Paper2_JCIM/docking_rerun/ligands/17574.pdb
REMARK  8 active torsions:
REMARK  status: ('A' for Active; 'I' for Inactive)
REMARK    1  A    between atoms: C1_1  and  C2_2
REMARK    2  A    between atoms: N1_4  and  C3_5
REMARK    3  A    between atoms: N1_4  and  C23_33
REMARK    4  A    between atoms: C6_8  and  N2_11
REMARK    5  A    between atoms: N2_11  and  C9_12
REMARK    6  A    between atoms: C11_14  and  S1_29
REMARK    7  A    between atoms: C12_15  and  N3_28
REMARK    8  A    between atoms: S1_29  and  O6_32
REMARK                            x       y       z     vdW  Elec       q    Type
REMARK                         _______ _______ _______ _____ _____    ______ ____
ROOT
ATOM      1  C9  UNL     1       6.581 -11.788  29.011  0.00  0.00    +0.045 A 
ATOM      2  C10 UNL     1       7.548 -10.891  28.561  0.00  0.00    +0.055 A 
ATOM      3  C11 UNL     1       8.390 -10.229  29.453  0.00  0.00    +0.140 A 
ATOM      4  C12 UNL     1       8.237 -10.429  30.842  0.00  0.00    +0.064 A 
ATOM      5  C13 UNL     1       7.221 -11.304  31.322  0.00  0.00    +0.057 A 
ATOM      6  C14 UNL     1       6.451 -12.055  30.397  0.00  0.00    +0.056 A 
ATOM      7  C15 UNL     1       5.554 -13.135  30.902  0.00  0.00    +0.196 C 
ATOM      8  O2  UNL     1       5.033 -13.959  30.101  0.00  0.00    -0.287 OA
ATOM      9  C16 UNL     1       5.317 -13.297  32.351  0.00  0.00    +0.033 A 
ATOM     10  C17 UNL     1       4.438 -14.288  32.829  0.00  0.00    +0.012 A 
ATOM     11  C18 UNL     1       4.218 -14.439  34.199  0.00  0.00    +0.001 A 
ATOM     12  C19 UNL     1       4.869 -13.604  35.106  0.00  0.00    +0.001 A 
ATOM     13  C20 UNL     1       5.742 -12.615  34.647  0.00  0.00    +0.012 A 
ATOM     14  C21 UNL     1       5.974 -12.455  33.267  0.00  0.00    +0.033 A 
ATOM     15  C22 UNL     1       6.890 -11.403  32.775  0.00  0.00    +0.196 C 
ATOM     16  O3  UNL     1       7.324 -10.545  33.591  0.00  0.00    -0.287 OA
ENDROOT
BRANCH   4  17
ATOM     17  N3  UNL     1       9.150  -9.798  31.754  0.00  0.00    -0.356 N 
ATOM     18  H14 UNL     1       9.581  -8.872  31.546  0.00  0.00    +0.142 HD
ATOM     19  H15 UNL     1       9.498 -10.304  32.597  0.00  0.00    +0.142 HD
ENDBRANCH   4  17
BRANCH   3  20
ATOM     20  S1  UNL     1       9.646  -9.167  28.796  0.00  0.00    +0.111 S 
ATOM     21  O4  UNL     1      10.999  -9.699  29.179  0.00  0.00    -0.142 OA
ATOM     22  O5  UNL     1       9.523  -9.108  27.300  0.00  0.00    -0.142 OA
BRANCH  20  23
ATOM     23  O6  UNL     1       9.474  -7.612  29.413  0.00  0.00    -0.250 OA
ATOM     24  H16 UNL     1      10.215  -7.093  29.008  0.00  0.00    +0.245 HD
ENDBRANCH  20  23
ENDBRANCH   3  20
BRANCH   1  25
ATOM     25  N2  UNL     1       5.722 -12.397  28.035  0.00  0.00    -0.314 N 
ATOM     26  H8  UNL     1       4.717 -12.112  28.036  0.00  0.00    +0.152 HD
BRANCH  25  30
ATOM     27  C3  UNL     1       6.839 -15.701  25.587  0.00  0.00    +0.036 A 
ATOM     28  C4  UNL     1       5.496 -15.313  25.703  0.00  0.00    +0.025 A 
ATOM     29  C5  UNL     1       5.140 -14.231  26.512  0.00  0.00    +0.025 A 
ATOM     30  C6  UNL     1       6.119 -13.514  27.216  0.00  0.00    +0.031 A 
ATOM     31  C7  UNL     1       7.466 -13.907  27.103  0.00  0.00    +0.025 A 
ATOM     32  C8  UNL     1       7.822 -14.988  26.293  0.00  0.00    +0.025 A 
BRANCH  27  36
ATOM     33  C1  UNL     1       7.534 -19.339  24.419  0.00  0.00    +0.109 C 
ATOM     34  C2  UNL     1       7.259 -18.148  25.288  0.00  0.00    +0.216 C 
ATOM     35  O1  UNL     1       7.081 -18.334  26.524  0.00  0.00    -0.276 OA
ATOM     36  N1  UNL     1       7.207 -16.811  24.743  0.00  0.00    -0.275 N 
ATOM     37  C23 UNL     1       7.650 -16.550  23.370  0.00  0.00    +0.138 C 
ENDBRANCH  27  36
ENDBRANCH  25  30
ENDBRANCH   1  25
TORSDOF 6
ENDMDL
MODEL 7
REMARK minimizedAffinity -6.74346685
REMARK minimizedRMSD -1
REMARK  Name = /home/tchapet/Post-Doc/ARTICLES-DOSSIERS-DES-ARTICLES-EN-REDACTION/NOUVELS-AXES-DE-RECHERCHE-A-REGARDER-URGEMMENT/ARTICLES-EN-REDACTIONS/ARTICLE_MVOTO/Paper2_JCIM/docking_rerun/ligands/17574.pdb
REMARK  8 active torsions:
REMARK  status: ('A' for Active; 'I' for Inactive)
REMARK    1  A    between atoms: C1_1  and  C2_2
REMARK    2  A    between atoms: N1_4  and  C3_5
REMARK    3  A    between atoms: N1_4  and  C23_33
REMARK    4  A    between atoms: C6_8  and  N2_11
REMARK    5  A    between atoms: N2_11  and  C9_12
REMARK    6  A    between atoms: C11_14  and  S1_29
REMARK    7  A    between atoms: C12_15  and  N3_28
REMARK    8  A    between atoms: S1_29  and  O6_32
REMARK                            x       y       z     vdW  Elec       q    Type
REMARK                         _______ _______ _______ _____ _____    ______ ____
ROOT
ATOM      1  C9  UNL     1      -8.892   6.457  20.526  0.00  0.00    +0.045 A 
ATOM      2  C10 UNL     1      -8.846   5.636  19.400  0.00  0.00    +0.055 A 
ATOM      3  C11 UNL     1      -8.161   6.025  18.250  0.00  0.00    +0.140 A 
ATOM      4  C12 UNL     1      -7.539   7.292  18.198  0.00  0.00    +0.064 A 
ATOM      5  C13 UNL     1      -7.618   8.163  19.322  0.00  0.00    +0.057 A 
ATOM      6  C14 UNL     1      -8.220   7.705  20.522  0.00  0.00    +0.056 A 
ATOM      7  C15 UNL     1      -8.096   8.527  21.761  0.00  0.00    +0.196 C 
ATOM      8  O2  UNL     1      -8.422   8.047  22.881  0.00  0.00    -0.287 OA
ATOM      9  C16 UNL     1      -7.526   9.889  21.703  0.00  0.00    +0.033 A 
ATOM     10  C17 UNL     1      -7.447  10.683  22.863  0.00  0.00    +0.012 A 
ATOM     11  C18 UNL     1      -6.907  11.969  22.805  0.00  0.00    +0.001 A 
ATOM     12  C19 UNL     1      -6.444  12.478  21.592  0.00  0.00    +0.001 A 
ATOM     13  C20 UNL     1      -6.518  11.701  20.434  0.00  0.00    +0.012 A 
ATOM     14  C21 UNL     1      -7.057  10.401  20.480  0.00  0.00    +0.033 A 
ATOM     15  C22 UNL     1      -7.148   9.579  19.253  0.00  0.00    +0.196 C 
ATOM     16  O3  UNL     1      -6.895  10.118  18.141  0.00  0.00    -0.287 OA
ENDROOT
BRANCH   4  17
ATOM     17  N3  UNL     1      -6.777   7.661  17.038  0.00  0.00    -0.356 N 
ATOM     18  H14 UNL     1      -7.028   7.319  16.086  0.00  0.00    +0.142 HD
ATOM     19  H15 UNL     1      -5.882   8.188  17.132  0.00  0.00    +0.142 HD
ENDBRANCH   4  17
BRANCH   3  20
ATOM     20  S1  UNL     1      -8.083   4.892  16.892  0.00  0.00    +0.111 S 
ATOM     21  O4  UNL     1      -8.958   3.705  17.181  0.00  0.00    -0.142 OA
ATOM     22  O5  UNL     1      -8.547   5.577  15.637  0.00  0.00    -0.142 OA
BRANCH  20  23
ATOM     23  O6  UNL     1      -6.501   4.364  16.664  0.00  0.00    -0.250 OA
ATOM     24  H16 UNL     1      -6.550   3.732  15.902  0.00  0.00    +0.245 HD
ENDBRANCH  20  23
ENDBRANCH   3  20
BRANCH   1  25
ATOM     25  N2  UNL     1      -9.654   6.006  21.656  0.00  0.00    -0.314 N 
ATOM     26  H8  UNL     1     -10.191   6.726  22.190  0.00  0.00    +0.152 HD
BRANCH  25  30
ATOM     27  C3  UNL     1      -9.287   2.102  23.323  0.00  0.00    +0.036 A 
ATOM     28  C4  UNL     1      -8.305   3.077  23.550  0.00  0.00    +0.025 A 
ATOM     29  C5  UNL     1      -8.432   4.352  22.995  0.00  0.00    +0.025 A 
ATOM     30  C6  UNL     1      -9.546   4.679  22.207  0.00  0.00    +0.031 A 
ATOM     31  C7  UNL     1     -10.529   3.699  21.975  0.00  0.00    +0.025 A 
ATOM     32  C8  UNL     1     -10.402   2.424  22.531  0.00  0.00    +0.025 A 
BRANCH  27  36
ATOM     33  C1  UNL     1      -8.078  -1.542  23.909  0.00  0.00    +0.109 C 
ATOM     34  C2  UNL     1      -8.317  -0.203  23.278  0.00  0.00    +0.216 C 
ATOM     35  O1  UNL     1      -7.770   0.045  22.167  0.00  0.00    -0.276 OA
ATOM     36  N1  UNL     1      -9.160   0.789  23.905  0.00  0.00    -0.275 N 
ATOM     37  C23 UNL     1      -9.992   0.434  25.060  0.00  0.00    +0.138 C 
ENDBRANCH  27  36
ENDBRANCH  25  30
ENDBRANCH   1  25
TORSDOF 6
ENDMDL
MODEL 8
REMARK minimizedAffinity -6.70523214
REMARK minimizedRMSD -1
REMARK  Name = /home/tchapet/Post-Doc/ARTICLES-DOSSIERS-DES-ARTICLES-EN-REDACTION/NOUVELS-AXES-DE-RECHERCHE-A-REGARDER-URGEMMENT/ARTICLES-EN-REDACTIONS/ARTICLE_MVOTO/Paper2_JCIM/docking_rerun/ligands/17574.pdb
REMARK  8 active torsions:
REMARK  status: ('A' for Active; 'I' for Inactive)
REMARK    1  A    between atoms: C1_1  and  C2_2
REMARK    2  A    between atoms: N1_4  and  C3_5
REMARK    3  A    between atoms: N1_4  and  C23_33
REMARK    4  A    between atoms: C6_8  and  N2_11
REMARK    5  A    between atoms: N2_11  and  C9_12
REMARK    6  A    between atoms: C11_14  and  S1_29
REMARK    7  A    between atoms: C12_15  and  N3_28
REMARK    8  A    between atoms: S1_29  and  O6_32
REMARK                            x       y       z     vdW  Elec       q    Type
REMARK                         _______ _______ _______ _____ _____    ______ ____
ROOT
ATOM      1  C9  UNL     1       2.858  -3.656   1.906  0.00  0.00    +0.045 A 
ATOM      2  C10 UNL     1       3.173  -4.997   2.119  0.00  0.00    +0.055 A 
ATOM      3  C11 UNL     1       2.181  -5.939   2.384  0.00  0.00    +0.140 A 
ATOM      4  C12 UNL     1       0.834  -5.529   2.486  0.00  0.00    +0.064 A 
ATOM      5  C13 UNL     1       0.500  -4.155   2.320  0.00  0.00    +0.057 A 
ATOM      6  C14 UNL     1       1.506  -3.232   1.938  0.00  0.00    +0.056 A 
ATOM      7  C15 UNL     1       1.114  -1.848   1.541  0.00  0.00    +0.196 C 
ATOM      8  O2  UNL     1       1.950  -1.081   0.988  0.00  0.00    -0.287 OA
ATOM      9  C16 UNL     1      -0.275  -1.379   1.726  0.00  0.00    +0.033 A 
ATOM     10  C17 UNL     1      -0.639  -0.061   1.391  0.00  0.00    +0.012 A 
ATOM     11  C18 UNL     1      -1.952   0.377   1.567  0.00  0.00    +0.001 A 
ATOM     12  C19 UNL     1      -2.916  -0.491   2.078  0.00  0.00    +0.001 A 
ATOM     13  C20 UNL     1      -2.569  -1.801   2.416  0.00  0.00    +0.012 A 
ATOM     14  C21 UNL     1      -1.247  -2.256   2.241  0.00  0.00    +0.033 A 
ATOM     15  C22 UNL     1      -0.873  -3.640   2.607  0.00  0.00    +0.196 C 
ATOM     16  O3  UNL     1      -1.706  -4.349   3.234  0.00  0.00    -0.287 OA
ENDROOT
BRANCH   4  17
ATOM     17  N3  UNL     1      -0.193  -6.513   2.692  0.00  0.00    -0.356 N 
ATOM     18  H14 UNL     1      -0.015  -7.385   3.235  0.00  0.00    +0.142 HD
ATOM     19  H15 UNL     1      -1.111  -6.436   2.204  0.00  0.00    +0.142 HD
ENDBRANCH   4  17
BRANCH   3  20
ATOM     20  S1  UNL     1       2.656  -7.635   2.564  0.00  0.00    +0.111 S 
ATOM     21  O4  UNL     1       2.899  -7.935   4.017  0.00  0.00    -0.142 OA
ATOM     22  O5  UNL     1       1.565  -8.522   2.033  0.00  0.00    -0.142 OA
BRANCH  20  23
ATOM     23  O6  UNL     1       4.067  -7.940   1.698  0.00  0.00    -0.250 OA
ATOM     24  H16 UNL     1       4.266  -8.897   1.862  0.00  0.00    +0.245 HD
ENDBRANCH  20  23
ENDBRANCH   3  20
BRANCH   1  25
ATOM     25  N2  UNL     1       3.939  -2.738   1.682  0.00  0.00    -0.314 N 
ATOM     26  H8  UNL     1       3.776  -1.736   1.930  0.00  0.00    +0.152 HD
BRANCH  25  30
ATOM     27  C3  UNL     1       7.433  -3.746  -0.538  0.00  0.00    +0.036 A 
ATOM     28  C4  UNL     1       6.172  -3.726  -1.151  0.00  0.00    +0.025 A 
ATOM     29  C5  UNL     1       5.032  -3.399  -0.413  0.00  0.00    +0.025 A 
ATOM     30  C6  UNL     1       5.131  -3.080   0.949  0.00  0.00    +0.031 A 
ATOM     31  C7  UNL     1       6.397  -3.105   1.565  0.00  0.00    +0.025 A 
ATOM     32  C8  UNL     1       7.537  -3.431   0.826  0.00  0.00    +0.025 A 
BRANCH  27  36
ATOM     33  C1  UNL     1      10.230  -5.835  -2.241  0.00  0.00    +0.109 C 
ATOM     34  C2  UNL     1       9.073  -5.440  -1.372  0.00  0.00    +0.216 C 
ATOM     35  O1  UNL     1       8.507  -6.333  -0.683  0.00  0.00    -0.276 OA
ATOM     36  N1  UNL     1       8.611  -4.073  -1.304  0.00  0.00    -0.275 N 
ATOM     37  C23 UNL     1       9.401  -2.990  -1.900  0.00  0.00    +0.138 C 
ENDBRANCH  27  36
ENDBRANCH  25  30
ENDBRANCH   1  25
TORSDOF 6
ENDMDL
MODEL 9
REMARK minimizedAffinity -6.6984973
REMARK minimizedRMSD -1
REMARK  Name = /home/tchapet/Post-Doc/ARTICLES-DOSSIERS-DES-ARTICLES-EN-REDACTION/NOUVELS-AXES-DE-RECHERCHE-A-REGARDER-URGEMMENT/ARTICLES-EN-REDACTIONS/ARTICLE_MVOTO/Paper2_JCIM/docking_rerun/ligands/17574.pdb
REMARK  8 active torsions:
REMARK  status: ('A' for Active; 'I' for Inactive)
REMARK    1  A    between atoms: C1_1  and  C2_2
REMARK    2  A    between atoms: N1_4  and  C3_5
REMARK    3  A    between atoms: N1_4  and  C23_33
REMARK    4  A    between atoms: C6_8  and  N2_11
REMARK    5  A    between atoms: N2_11  and  C9_12
REMARK    6  A    between atoms: C11_14  and  S1_29
REMARK    7  A    between atoms: C12_15  and  N3_28
REMARK    8  A    between atoms: S1_29  and  O6_32
REMARK                            x       y       z     vdW  Elec       q    Type
REMARK                         _______ _______ _______ _____ _____    ______ ____
ROOT
ATOM      1  C9  UNL     1       2.254  -2.363   0.888  0.00  0.00    +0.045 A 
ATOM      2  C10 UNL     1       1.442  -3.166   1.686  0.00  0.00    +0.055 A 
ATOM      3  C11 UNL     1       1.927  -4.340   2.259  0.00  0.00    +0.140 A 
ATOM      4  C12 UNL     1       3.251  -4.755   1.995  0.00  0.00    +0.064 A 
ATOM      5  C13 UNL     1       4.079  -3.971   1.143  0.00  0.00    +0.057 A 
ATOM      6  C14 UNL     1       3.606  -2.723   0.662  0.00  0.00    +0.056 A 
ATOM      7  C15 UNL     1       4.552  -1.802  -0.034  0.00  0.00    +0.196 C 
ATOM      8  O2  UNL     1       4.223  -0.608  -0.271  0.00  0.00    -0.287 OA
ATOM      9  C16 UNL     1       5.912  -2.256  -0.394  0.00  0.00    +0.033 A 
ATOM     10  C17 UNL     1       6.792  -1.404  -1.088  0.00  0.00    +0.012 A 
ATOM     11  C18 UNL     1       8.076  -1.836  -1.425  0.00  0.00    +0.001 A 
ATOM     12  C19 UNL     1       8.495  -3.120  -1.077  0.00  0.00    +0.001 A 
ATOM     13  C20 UNL     1       7.631  -3.975  -0.389  0.00  0.00    +0.012 A 
ATOM     14  C21 UNL     1       6.334  -3.550  -0.041  0.00  0.00    +0.033 A 
ATOM     15  C22 UNL     1       5.413  -4.457   0.678  0.00  0.00    +0.196 C 
ATOM     16  O3  UNL     1       5.740  -5.667   0.822  0.00  0.00    -0.287 OA
ENDROOT
BRANCH   4  17
ATOM     17  N3  UNL     1       3.769  -5.928   2.642  0.00  0.00    -0.356 N 
ATOM     18  H14 UNL     1       3.156  -6.736   2.885  0.00  0.00    +0.142 HD
ATOM     19  H15 UNL     1       4.751  -5.956   2.992  0.00  0.00    +0.142 HD
ENDBRANCH   4  17
BRANCH   3  20
ATOM     20  S1  UNL     1       0.856  -5.264   3.324  0.00  0.00    +0.111 S 
ATOM     21  O4  UNL     1      -0.454  -4.539   3.466  0.00  0.00    -0.142 OA
ATOM     22  O5  UNL     1       0.624  -6.630   2.743  0.00  0.00    -0.142 OA
BRANCH  20  23
ATOM     23  O6  UNL     1       1.554  -5.437   4.845  0.00  0.00    -0.250 OA
ATOM     24  H16 UNL     1       0.891  -5.949   5.374  0.00  0.00    +0.245 HD
ENDBRANCH  20  23
ENDBRANCH   3  20
BRANCH   1  25
ATOM     25  N2  UNL     1       1.669  -1.192   0.297  0.00  0.00    -0.314 N 
ATOM     26  H8  UNL     1       2.313  -0.528  -0.189  0.00  0.00    +0.152 HD
BRANCH  25  30
ATOM     27  C3  UNL     1      -2.385  -0.038   0.919  0.00  0.00    +0.036 A 
ATOM     28  C4  UNL     1      -2.030  -0.868  -0.155  0.00  0.00    +0.025 A 
ATOM     29  C5  UNL     1      -0.697  -1.237  -0.353  0.00  0.00    +0.025 A 
ATOM     30  C6  UNL     1       0.305  -0.788   0.521  0.00  0.00    +0.031 A 
ATOM     31  C7  UNL     1      -0.052   0.050   1.595  0.00  0.00    +0.025 A 
ATOM     32  C8  UNL     1      -1.385   0.417   1.793  0.00  0.00    +0.025 A 
BRANCH  27  36
ATOM     33  C1  UNL     1      -6.013  -0.059   2.305  0.00  0.00    +0.109 C 
ATOM     34  C2  UNL     1      -4.608  -0.471   1.981  0.00  0.00    +0.216 C 
ATOM     35  O1  UNL     1      -4.171  -1.552   2.463  0.00  0.00    -0.276 OA
ATOM     36  N1  UNL     1      -3.763   0.333   1.128  0.00  0.00    -0.275 N 
ATOM     37  C23 UNL     1      -4.325   1.454   0.367  0.00  0.00    +0.138 C 
ENDBRANCH  27  36
ENDBRANCH  25  30
ENDBRANCH   1  25
TORSDOF 6
ENDMDL
