MODEL 1
REMARK minimizedAffinity -4.4547739
REMARK minimizedRMSD -1
REMARK  Name = /home/tchapet/Post-Doc/ARTICLES-DOSSIERS-DES-ARTICLES-EN-REDACTION/NOUVELS-AXES-DE-RECHERCHE-A-REGARDER-URGEMMENT/ARTICLES-EN-REDACTIONS/ARTICLE_MVOTO/Paper2_Sensors_ActuatorsB/docking_rerun/ligands/17851.pdb
REMARK  7 active torsions:
REMARK  status: ('A' for Active; 'I' for Inactive)
REMARK    1  A    between atoms: C1_1  and  C2_2
REMARK    2  A    between atoms: C2_2  and  N1_3
REMARK    3  A    between atoms: N1_3  and  C3_4
REMARK    4  A    between atoms: N3_7  and  N4_8
REMARK    5  A    between atoms: N8_13  and  C6_14
REMARK    6  A    between atoms: C6_14  and  C7_15
REMARK    7  A    between atoms: C6_14  and  C8_16
REMARK                            x       y       z     vdW  Elec       q    Type
REMARK                         _______ _______ _______ _____ _____    ______ ____
ROOT
ATOM      1  C3  UNL     1       5.498  12.397  18.125  0.00  0.00    +0.241 A 
ATOM      2  N2  UNL     1       6.492  13.256  17.778  0.00  0.00    -0.178 NA
ATOM      3  C4  UNL     1       6.819  14.289  18.596  0.00  0.00    +0.252 A 
ATOM      4  N3  UNL     1       7.863  15.194  18.236  0.00  0.00    -0.126 N 
ATOM      5  N6  UNL     1       6.150  14.458  19.764  0.00  0.00    -0.179 NA
ATOM      6  C5  UNL     1       5.155  13.603  20.119  0.00  0.00    +0.221 A 
ATOM      7  N7  UNL     1       4.834  12.574  19.294  0.00  0.00    -0.180 NA
ATOM      8  N8  UNL     1       4.438  13.771  21.353  0.00  0.00    -0.311 N 
ATOM      9  H6  UNL     1       8.108  15.985  18.872  0.00  0.00    +0.193 HD
ATOM     10  H7  UNL     1       3.684  13.081  21.568  0.00  0.00    +0.149 HD
ENDROOT
BRANCH   8  11
ATOM     11  C6  UNL     1       4.678  14.835  22.337  0.00  0.00    +0.067 C 
ATOM     12  C7  UNL     1       3.361  15.418  22.861  0.00  0.00    +0.027 C 
ATOM     13  C8  UNL     1       5.581  14.349  23.477  0.00  0.00    +0.027 C 
ENDBRANCH   8  11
BRANCH   4  14
ATOM     14  N4  UNL     1       8.545  15.043  17.073  0.00  0.00    -0.126 NA
ATOM     15  N5  UNL     1       9.109  14.918  16.112  0.00  0.00    -0.017 NA
ENDBRANCH   4  14
BRANCH   1  16
ATOM     16  N1  UNL     1       5.145  11.307  17.271  0.00  0.00    -0.216 NA
BRANCH  16  18
ATOM     17  C1  UNL     1       3.003  10.941  16.169  0.00  0.00    +0.026 C 
ATOM     18  C2  UNL     1       4.415  11.486  16.022  0.00  0.00    +0.128 C 
ENDBRANCH  16  18
ENDBRANCH   1  16
TORSDOF 4
ENDMDL
MODEL 2
REMARK minimizedAffinity -4.44325924
REMARK minimizedRMSD -1
REMARK  Name = /home/tchapet/Post-Doc/ARTICLES-DOSSIERS-DES-ARTICLES-EN-REDACTION/NOUVELS-AXES-DE-RECHERCHE-A-REGARDER-URGEMMENT/ARTICLES-EN-REDACTIONS/ARTICLE_MVOTO/Paper2_Sensors_ActuatorsB/docking_rerun/ligands/17851.pdb
REMARK  7 active torsions:
REMARK  status: ('A' for Active; 'I' for Inactive)
REMARK    1  A    between atoms: C1_1  and  C2_2
REMARK    2  A    between atoms: C2_2  and  N1_3
REMARK    3  A    between atoms: N1_3  and  C3_4
REMARK    4  A    between atoms: N3_7  and  N4_8
REMARK    5  A    between atoms: N8_13  and  C6_14
REMARK    6  A    between atoms: C6_14  and  C7_15
REMARK    7  A    between atoms: C6_14  and  C8_16
REMARK                            x       y       z     vdW  Elec       q    Type
REMARK                         _______ _______ _______ _____ _____    ______ ____
ROOT
ATOM      1  C3  UNL     1       6.535  14.129  18.367  0.00  0.00    +0.241 A 
ATOM      2  N2  UNL     1       6.026  14.033  19.623  0.00  0.00    -0.178 NA
ATOM      3  C4  UNL     1       4.893  13.319  19.848  0.00  0.00    +0.252 A 
ATOM      4  N3  UNL     1       4.354  13.215  21.167  0.00  0.00    -0.126 N 
ATOM      5  N6  UNL     1       4.271  12.701  18.813  0.00  0.00    -0.179 NA
ATOM      6  C5  UNL     1       4.774  12.792  17.553  0.00  0.00    +0.221 A 
ATOM      7  N7  UNL     1       5.906  13.508  17.337  0.00  0.00    -0.180 NA
ATOM      8  N8  UNL     1       4.125  12.143  16.448  0.00  0.00    -0.311 N 
ATOM      9  H6  UNL     1       3.483  12.663  21.330  0.00  0.00    +0.193 HD
ATOM     10  H7  UNL     1       4.561  12.251  15.505  0.00  0.00    +0.149 HD
ENDROOT
BRANCH   8  11
ATOM     11  C6  UNL     1       2.899  11.339  16.535  0.00  0.00    +0.067 C 
ATOM     12  C7  UNL     1       1.654  12.188  16.257  0.00  0.00    +0.027 C 
ATOM     13  C8  UNL     1       2.969  10.111  15.620  0.00  0.00    +0.027 C 
ENDBRANCH   8  11
BRANCH   4  14
ATOM     14  N4  UNL     1       4.960  13.825  22.216  0.00  0.00    -0.126 NA
ATOM     15  N5  UNL     1       5.461  14.329  23.083  0.00  0.00    -0.017 NA
ENDBRANCH   4  14
BRANCH   1  16
ATOM     16  N1  UNL     1       7.726  14.877  18.118  0.00  0.00    -0.216 NA
BRANCH  16  18
ATOM     17  C1  UNL     1       8.601  15.811  16.045  0.00  0.00    +0.026 C 
ATOM     18  C2  UNL     1       8.602  14.614  16.983  0.00  0.00    +0.128 C 
ENDBRANCH  16  18
ENDBRANCH   1  16
TORSDOF 4
ENDMDL
MODEL 3
REMARK minimizedAffinity -4.28948259
REMARK minimizedRMSD -1
REMARK  Name = /home/tchapet/Post-Doc/ARTICLES-DOSSIERS-DES-ARTICLES-EN-REDACTION/NOUVELS-AXES-DE-RECHERCHE-A-REGARDER-URGEMMENT/ARTICLES-EN-REDACTIONS/ARTICLE_MVOTO/Paper2_Sensors_ActuatorsB/docking_rerun/ligands/17851.pdb
REMARK  7 active torsions:
REMARK  status: ('A' for Active; 'I' for Inactive)
REMARK    1  A    between atoms: C1_1  and  C2_2
REMARK    2  A    between atoms: C2_2  and  N1_3
REMARK    3  A    between atoms: N1_3  and  C3_4
REMARK    4  A    between atoms: N3_7  and  N4_8
REMARK    5  A    between atoms: N8_13  and  C6_14
REMARK    6  A    between atoms: C6_14  and  C7_15
REMARK    7  A    between atoms: C6_14  and  C8_16
REMARK                            x       y       z     vdW  Elec       q    Type
REMARK                         _______ _______ _______ _____ _____    ______ ____
ROOT
ATOM      1  C3  UNL     1       6.502  13.973  17.751  0.00  0.00    +0.241 A 
ATOM      2  N2  UNL     1       5.304  13.345  17.621  0.00  0.00    -0.178 NA
ATOM      3  C4  UNL     1       4.400  13.381  18.634  0.00  0.00    +0.252 A 
ATOM      4  N3  UNL     1       3.140  12.722  18.502  0.00  0.00    -0.126 N 
ATOM      5  N6  UNL     1       4.698  14.048  19.776  0.00  0.00    -0.179 NA
ATOM      6  C5  UNL     1       5.893  14.680  19.915  0.00  0.00    +0.221 A 
ATOM      7  N7  UNL     1       6.791  14.638  18.897  0.00  0.00    -0.180 NA
ATOM      8  N8  UNL     1       6.222  15.390  21.119  0.00  0.00    -0.311 N 
ATOM      9  H6  UNL     1       2.451  12.756  19.287  0.00  0.00    +0.193 HD
ATOM     10  H7  UNL     1       7.158  15.854  21.163  0.00  0.00    +0.149 HD
ENDROOT
BRANCH   8  11
ATOM     11  C6  UNL     1       5.351  15.518  22.295  0.00  0.00    +0.067 C 
ATOM     12  C7  UNL     1       5.481  14.303  23.221  0.00  0.00    +0.027 C 
ATOM     13  C8  UNL     1       5.606  16.833  23.040  0.00  0.00    +0.027 C 
ENDBRANCH   8  11
BRANCH   4  14
ATOM     14  N4  UNL     1       2.821  12.049  17.368  0.00  0.00    -0.126 NA
ATOM     15  N5  UNL     1       2.559  11.493  16.431  0.00  0.00    -0.017 NA
ENDBRANCH   4  14
BRANCH   1  16
ATOM     16  N1  UNL     1       7.460  13.941  16.692  0.00  0.00    -0.216 NA
BRANCH  16  18
ATOM     17  C1  UNL     1       8.745  15.904  16.037  0.00  0.00    +0.026 C 
ATOM     18  C2  UNL     1       8.765  14.582  16.788  0.00  0.00    +0.128 C 
ENDBRANCH  16  18
ENDBRANCH   1  16
TORSDOF 4
ENDMDL
MODEL 4
REMARK minimizedAffinity -4.18016052
REMARK minimizedRMSD -1
REMARK  Name = /home/tchapet/Post-Doc/ARTICLES-DOSSIERS-DES-ARTICLES-EN-REDACTION/NOUVELS-AXES-DE-RECHERCHE-A-REGARDER-URGEMMENT/ARTICLES-EN-REDACTIONS/ARTICLE_MVOTO/Paper2_Sensors_ActuatorsB/docking_rerun/ligands/17851.pdb
REMARK  7 active torsions:
REMARK  status: ('A' for Active; 'I' for Inactive)
REMARK    1  A    between atoms: C1_1  and  C2_2
REMARK    2  A    between atoms: C2_2  and  N1_3
REMARK    3  A    between atoms: N1_3  and  C3_4
REMARK    4  A    between atoms: N3_7  and  N4_8
REMARK    5  A    between atoms: N8_13  and  C6_14
REMARK    6  A    between atoms: C6_14  and  C7_15
REMARK    7  A    between atoms: C6_14  and  C8_16
REMARK                            x       y       z     vdW  Elec       q    Type
REMARK                         _______ _______ _______ _____ _____    ______ ____
ROOT
ATOM      1  C3  UNL     1       5.822  12.280  17.568  0.00  0.00    +0.241 A 
ATOM      2  N2  UNL     1       4.475  12.104  17.529  0.00  0.00    -0.178 NA
ATOM      3  C4  UNL     1       3.680  12.708  18.449  0.00  0.00    +0.252 A 
ATOM      4  N3  UNL     1       2.264  12.525  18.413  0.00  0.00    -0.126 N 
ATOM      5  N6  UNL     1       4.236  13.491  19.407  0.00  0.00    -0.179 NA
ATOM      6  C5  UNL     1       5.582  13.674  19.453  0.00  0.00    +0.221 A 
ATOM      7  N7  UNL     1       6.370  13.065  18.529  0.00  0.00    -0.180 NA
ATOM      8  N8  UNL     1       6.186  14.500  20.462  0.00  0.00    -0.311 N 
ATOM      9  H6  UNL     1       1.661  12.995  19.125  0.00  0.00    +0.193 HD
ATOM     10  H7  UNL     1       7.225  14.599  20.443  0.00  0.00    +0.149 HD
ENDROOT
BRANCH   8  11
ATOM     11  C6  UNL     1       5.460  15.216  21.519  0.00  0.00    +0.067 C 
ATOM     12  C7  UNL     1       5.306  14.351  22.775  0.00  0.00    +0.027 C 
ATOM     13  C8  UNL     1       6.115  16.565  21.832  0.00  0.00    +0.027 C 
ENDBRANCH   8  11
BRANCH   4  14
ATOM     14  N4  UNL     1       1.687  11.747  17.464  0.00  0.00    -0.126 NA
ATOM     15  N5  UNL     1       1.210  11.104  16.679  0.00  0.00    -0.017 NA
ENDBRANCH   4  14
BRANCH   1  16
ATOM     16  N1  UNL     1       6.667  11.649  16.605  0.00  0.00    -0.216 NA
BRANCH  16  18
ATOM     17  C1  UNL     1       6.418  12.993  14.589  0.00  0.00    +0.026 C 
ATOM     18  C2  UNL     1       6.346  11.596  15.185  0.00  0.00    +0.128 C 
ENDBRANCH  16  18
ENDBRANCH   1  16
TORSDOF 4
ENDMDL
MODEL 5
REMARK minimizedAffinity -4.16063166
REMARK minimizedRMSD -1
REMARK  Name = /home/tchapet/Post-Doc/ARTICLES-DOSSIERS-DES-ARTICLES-EN-REDACTION/NOUVELS-AXES-DE-RECHERCHE-A-REGARDER-URGEMMENT/ARTICLES-EN-REDACTIONS/ARTICLE_MVOTO/Paper2_Sensors_ActuatorsB/docking_rerun/ligands/17851.pdb
REMARK  7 active torsions:
REMARK  status: ('A' for Active; 'I' for Inactive)
REMARK    1  A    between atoms: C1_1  and  C2_2
REMARK    2  A    between atoms: C2_2  and  N1_3
REMARK    3  A    between atoms: N1_3  and  C3_4
REMARK    4  A    between atoms: N3_7  and  N4_8
REMARK    5  A    between atoms: N8_13  and  C6_14
REMARK    6  A    between atoms: C6_14  and  C7_15
REMARK    7  A    between atoms: C6_14  and  C8_16
REMARK                            x       y       z     vdW  Elec       q    Type
REMARK                         _______ _______ _______ _____ _____    ______ ____
ROOT
ATOM      1  C3  UNL     1      33.799   7.141  33.171  0.00  0.00    +0.241 A 
ATOM      2  N2  UNL     1      33.552   7.633  31.929  0.00  0.00    -0.178 NA
ATOM      3  C4  UNL     1      32.800   6.923  31.049  0.00  0.00    +0.252 A 
ATOM      4  N3  UNL     1      32.537   7.436  29.742  0.00  0.00    -0.126 N 
ATOM      5  N6  UNL     1      32.294   5.719  31.416  0.00  0.00    -0.179 NA
ATOM      6  C5  UNL     1      32.536   5.219  32.657  0.00  0.00    +0.221 A 
ATOM      7  N7  UNL     1      33.289   5.936  33.530  0.00  0.00    -0.180 NA
ATOM      8  N8  UNL     1      32.007   3.946  33.060  0.00  0.00    -0.311 N 
ATOM      9  H6  UNL     1      31.957   6.883  29.073  0.00  0.00    +0.193 HD
ATOM     10  H7  UNL     1      32.229   3.617  34.026  0.00  0.00    +0.149 HD
ENDROOT
BRANCH   8  11
ATOM     11  C6  UNL     1      31.179   3.066  32.223  0.00  0.00    +0.067 C 
ATOM     12  C7  UNL     1      31.818   1.682  32.065  0.00  0.00    +0.027 C 
ATOM     13  C8  UNL     1      29.745   2.976  32.755  0.00  0.00    +0.027 C 
ENDBRANCH   8  11
BRANCH   4  14
ATOM     14  N4  UNL     1      33.033   8.638  29.354  0.00  0.00    -0.126 NA
ATOM     15  N5  UNL     1      33.442   9.631  29.033  0.00  0.00    -0.017 NA
ENDBRANCH   4  14
BRANCH   1  16
ATOM     16  N1  UNL     1      34.589   7.879  34.104  0.00  0.00    -0.216 NA
BRANCH  16  18
ATOM     17  C1  UNL     1      34.806   8.508  36.447  0.00  0.00    +0.026 C 
ATOM     18  C2  UNL     1      34.914   7.380  35.434  0.00  0.00    +0.128 C 
ENDBRANCH  16  18
ENDBRANCH   1  16
TORSDOF 4
ENDMDL
MODEL 6
REMARK minimizedAffinity -4.12383223
REMARK minimizedRMSD -1
REMARK  Name = /home/tchapet/Post-Doc/ARTICLES-DOSSIERS-DES-ARTICLES-EN-REDACTION/NOUVELS-AXES-DE-RECHERCHE-A-REGARDER-URGEMMENT/ARTICLES-EN-REDACTIONS/ARTICLE_MVOTO/Paper2_Sensors_ActuatorsB/docking_rerun/ligands/17851.pdb
REMARK  7 active torsions:
REMARK  status: ('A' for Active; 'I' for Inactive)
REMARK    1  A    between atoms: C1_1  and  C2_2
REMARK    2  A    between atoms: C2_2  and  N1_3
REMARK    3  A    between atoms: N1_3  and  C3_4
REMARK    4  A    between atoms: N3_7  and  N4_8
REMARK    5  A    between atoms: N8_13  and  C6_14
REMARK    6  A    between atoms: C6_14  and  C7_15
REMARK    7  A    between atoms: C6_14  and  C8_16
REMARK                            x       y       z     vdW  Elec       q    Type
REMARK                         _______ _______ _______ _____ _____    ______ ____
ROOT
ATOM      1  C3  UNL     1      32.966   6.211  31.870  0.00  0.00    +0.241 A 
ATOM      2  N2  UNL     1      32.979   5.875  30.553  0.00  0.00    -0.178 NA
ATOM      3  C4  UNL     1      32.473   4.682  30.147  0.00  0.00    +0.252 A 
ATOM      4  N3  UNL     1      32.485   4.324  28.765  0.00  0.00    -0.126 N 
ATOM      5  N6  UNL     1      31.952   3.827  31.062  0.00  0.00    -0.179 NA
ATOM      6  C5  UNL     1      31.934   4.155  32.381  0.00  0.00    +0.221 A 
ATOM      7  N7  UNL     1      32.443   5.349  32.778  0.00  0.00    -0.180 NA
ATOM      8  N8  UNL     1      31.386   3.259  33.361  0.00  0.00    -0.311 N 
ATOM      9  H6  UNL     1      32.092   3.405  28.462  0.00  0.00    +0.193 HD
ATOM     10  H7  UNL     1      31.402   3.570  34.359  0.00  0.00    +0.149 HD
ENDROOT
BRANCH   8  11
ATOM     11  C6  UNL     1      30.804   1.941  33.076  0.00  0.00    +0.067 C 
ATOM     12  C7  UNL     1      31.512   0.835  33.866  0.00  0.00    +0.027 C 
ATOM     13  C8  UNL     1      29.290   1.934  33.316  0.00  0.00    +0.027 C 
ENDBRANCH   8  11
BRANCH   4  14
ATOM     14  N4  UNL     1      33.001   5.165  27.833  0.00  0.00    -0.126 NA
ATOM     15  N5  UNL     1      33.428   5.859  27.063  0.00  0.00    -0.017 NA
ENDBRANCH   4  14
BRANCH   1  16
ATOM     16  N1  UNL     1      33.496   7.463  32.308  0.00  0.00    -0.216 NA
BRANCH  16  18
ATOM     17  C1  UNL     1      34.595   7.721  34.467  0.00  0.00    +0.026 C 
ATOM     18  C2  UNL     1      34.791   7.586  32.965  0.00  0.00    +0.128 C 
ENDBRANCH  16  18
ENDBRANCH   1  16
TORSDOF 4
ENDMDL
MODEL 7
REMARK minimizedAffinity -4.10614157
REMARK minimizedRMSD -1
REMARK  Name = /home/tchapet/Post-Doc/ARTICLES-DOSSIERS-DES-ARTICLES-EN-REDACTION/NOUVELS-AXES-DE-RECHERCHE-A-REGARDER-URGEMMENT/ARTICLES-EN-REDACTIONS/ARTICLE_MVOTO/Paper2_Sensors_ActuatorsB/docking_rerun/ligands/17851.pdb
REMARK  7 active torsions:
REMARK  status: ('A' for Active; 'I' for Inactive)
REMARK    1  A    between atoms: C1_1  and  C2_2
REMARK    2  A    between atoms: C2_2  and  N1_3
REMARK    3  A    between atoms: N1_3  and  C3_4
REMARK    4  A    between atoms: N3_7  and  N4_8
REMARK    5  A    between atoms: N8_13  and  C6_14
REMARK    6  A    between atoms: C6_14  and  C7_15
REMARK    7  A    between atoms: C6_14  and  C8_16
REMARK                            x       y       z     vdW  Elec       q    Type
REMARK                         _______ _______ _______ _____ _____    ______ ____
ROOT
ATOM      1  C3  UNL     1       7.101  16.140  20.315  0.00  0.00    +0.241 A 
ATOM      2  N2  UNL     1       6.056  15.880  21.143  0.00  0.00    -0.178 NA
ATOM      3  C4  UNL     1       5.236  14.826  20.898  0.00  0.00    +0.252 A 
ATOM      4  N3  UNL     1       4.135  14.549  21.765  0.00  0.00    -0.126 N 
ATOM      5  N6  UNL     1       5.465  14.032  19.822  0.00  0.00    -0.179 NA
ATOM      6  C5  UNL     1       6.509  14.284  18.989  0.00  0.00    +0.221 A 
ATOM      7  N7  UNL     1       7.324  15.341  19.241  0.00  0.00    -0.180 NA
ATOM      8  N8  UNL     1       6.765  13.452  17.846  0.00  0.00    -0.311 N 
ATOM      9  H6  UNL     1       3.511  13.735  21.568  0.00  0.00    +0.193 HD
ATOM     10  H7  UNL     1       7.582  13.700  17.245  0.00  0.00    +0.149 HD
ENDROOT
BRANCH   8  11
ATOM     11  C6  UNL     1       5.969  12.281  17.453  0.00  0.00    +0.067 C 
ATOM     12  C7  UNL     1       4.651  12.698  16.792  0.00  0.00    +0.027 C 
ATOM     13  C8  UNL     1       6.777  11.329  16.565  0.00  0.00    +0.027 C 
ENDBRANCH   8  11
BRANCH   4  14
ATOM     14  N4  UNL     1       3.888  15.330  22.846  0.00  0.00    -0.126 NA
ATOM     15  N5  UNL     1       3.683  15.975  23.739  0.00  0.00    -0.017 NA
ENDBRANCH   4  14
BRANCH   1  16
ATOM     16  N1  UNL     1       7.970  17.246  20.563  0.00  0.00    -0.216 NA
BRANCH  16  18
ATOM     17  C1  UNL     1       9.365  16.861  22.523  0.00  0.00    +0.026 C 
ATOM     18  C2  UNL     1       8.277  17.726  21.905  0.00  0.00    +0.128 C 
ENDBRANCH  16  18
ENDBRANCH   1  16
TORSDOF 4
ENDMDL
MODEL 8
REMARK minimizedAffinity -4.0232296
REMARK minimizedRMSD -1
REMARK  Name = /home/tchapet/Post-Doc/ARTICLES-DOSSIERS-DES-ARTICLES-EN-REDACTION/NOUVELS-AXES-DE-RECHERCHE-A-REGARDER-URGEMMENT/ARTICLES-EN-REDACTIONS/ARTICLE_MVOTO/Paper2_Sensors_ActuatorsB/docking_rerun/ligands/17851.pdb
REMARK  7 active torsions:
REMARK  status: ('A' for Active; 'I' for Inactive)
REMARK    1  A    between atoms: C1_1  and  C2_2
REMARK    2  A    between atoms: C2_2  and  N1_3
REMARK    3  A    between atoms: N1_3  and  C3_4
REMARK    4  A    between atoms: N3_7  and  N4_8
REMARK    5  A    between atoms: N8_13  and  C6_14
REMARK    6  A    between atoms: C6_14  and  C7_15
REMARK    7  A    between atoms: C6_14  and  C8_16
REMARK                            x       y       z     vdW  Elec       q    Type
REMARK                         _______ _______ _______ _____ _____    ______ ____
ROOT
ATOM      1  C3  UNL     1       4.719  -4.305  29.373  0.00  0.00    +0.241 A 
ATOM      2  N2  UNL     1       5.707  -5.121  28.923  0.00  0.00    -0.178 NA
ATOM      3  C4  UNL     1       6.584  -5.678  29.797  0.00  0.00    +0.252 A 
ATOM      4  N3  UNL     1       7.626  -6.536  29.329  0.00  0.00    -0.126 N 
ATOM      5  N6  UNL     1       6.468  -5.418  31.123  0.00  0.00    -0.179 NA
ATOM      6  C5  UNL     1       5.482  -4.603  31.582  0.00  0.00    +0.221 A 
ATOM      7  N7  UNL     1       4.610  -4.050  30.701  0.00  0.00    -0.180 NA
ATOM      8  N8  UNL     1       5.346  -4.318  32.984  0.00  0.00    -0.311 N 
ATOM      9  H6  UNL     1       8.295  -6.961  30.009  0.00  0.00    +0.193 HD
ATOM     10  H7  UNL     1       4.568  -3.684  33.272  0.00  0.00    +0.149 HD
ENDROOT
BRANCH   8  11
ATOM     11  C6  UNL     1       6.214  -4.845  34.045  0.00  0.00    +0.067 C 
ATOM     12  C7  UNL     1       6.507  -3.781  35.108  0.00  0.00    +0.027 C 
ATOM     13  C8  UNL     1       5.632  -6.122  34.661  0.00  0.00    +0.027 C 
ENDBRANCH   8  11
BRANCH   4  14
ATOM     14  N4  UNL     1       7.760  -6.810  28.007  0.00  0.00    -0.126 NA
ATOM     15  N5  UNL     1       7.871  -7.037  26.915  0.00  0.00    -0.017 NA
ENDBRANCH   4  14
BRANCH   1  16
ATOM     16  N1  UNL     1       3.791  -3.713  28.462  0.00  0.00    -0.216 NA
BRANCH  16  18
ATOM     17  C1  UNL     1       2.684  -1.676  27.712  0.00  0.00    +0.026 C 
ATOM     18  C2  UNL     1       2.857  -2.665  28.855  0.00  0.00    +0.128 C 
ENDBRANCH  16  18
ENDBRANCH   1  16
TORSDOF 4
ENDMDL
MODEL 9
REMARK minimizedAffinity -4.00726318
REMARK minimizedRMSD -1
REMARK  Name = /home/tchapet/Post-Doc/ARTICLES-DOSSIERS-DES-ARTICLES-EN-REDACTION/NOUVELS-AXES-DE-RECHERCHE-A-REGARDER-URGEMMENT/ARTICLES-EN-REDACTIONS/ARTICLE_MVOTO/Paper2_Sensors_ActuatorsB/docking_rerun/ligands/17851.pdb
REMARK  7 active torsions:
REMARK  status: ('A' for Active; 'I' for Inactive)
REMARK    1  A    between atoms: C1_1  and  C2_2
REMARK    2  A    between atoms: C2_2  and  N1_3
REMARK    3  A    between atoms: N1_3  and  C3_4
REMARK    4  A    between atoms: N3_7  and  N4_8
REMARK    5  A    between atoms: N8_13  and  C6_14
REMARK    6  A    between atoms: C6_14  and  C7_15
REMARK    7  A    between atoms: C6_14  and  C8_16
REMARK                            x       y       z     vdW  Elec       q    Type
REMARK                         _______ _______ _______ _____ _____    ______ ____
ROOT
ATOM      1  C3  UNL     1       6.196  -5.368  35.657  0.00  0.00    +0.241 A 
ATOM      2  N2  UNL     1       5.722  -6.641  35.628  0.00  0.00    -0.178 NA
ATOM      3  C4  UNL     1       5.358  -7.208  34.450  0.00  0.00    +0.252 A 
ATOM      4  N3  UNL     1       4.859  -8.546  34.415  0.00  0.00    -0.126 N 
ATOM      5  N6  UNL     1       5.471  -6.499  33.299  0.00  0.00    -0.179 NA
ATOM      6  C5  UNL     1       5.945  -5.225  33.318  0.00  0.00    +0.221 A 
ATOM      7  N7  UNL     1       6.305  -4.665  34.501  0.00  0.00    -0.180 NA
ATOM      8  N8  UNL     1       6.070  -4.462  32.107  0.00  0.00    -0.311 N 
ATOM      9  H6  UNL     1       4.582  -8.974  33.503  0.00  0.00    +0.193 HD
ATOM     10  H7  UNL     1       6.440  -3.489  32.189  0.00  0.00    +0.149 HD
ENDROOT
BRANCH   8  11
ATOM     11  C6  UNL     1       5.719  -4.938  30.763  0.00  0.00    +0.067 C 
ATOM     12  C7  UNL     1       4.884  -3.902  30.003  0.00  0.00    +0.027 C 
ATOM     13  C8  UNL     1       6.965  -5.356  29.974  0.00  0.00    +0.027 C 
ENDBRANCH   8  11
BRANCH   4  14
ATOM     14  N4  UNL     1       4.737  -9.274  35.553  0.00  0.00    -0.126 NA
ATOM     15  N5  UNL     1       4.638  -9.875  36.494  0.00  0.00    -0.017 NA
ENDBRANCH   4  14
BRANCH   1  16
ATOM     16  N1  UNL     1       6.581  -4.761  36.891  0.00  0.00    -0.216 NA
BRANCH  16  18
ATOM     17  C1  UNL     1       5.055  -4.535  38.776  0.00  0.00    +0.026 C 
ATOM     18  C2  UNL     1       6.222  -5.314  38.190  0.00  0.00    +0.128 C 
ENDBRANCH  16  18
ENDBRANCH   1  16
TORSDOF 4
ENDMDL
