MODEL 1
REMARK minimizedAffinity -4.53899479
REMARK minimizedRMSD -1
REMARK  Name = /home/tchapet/Post-Doc/ARTICLES-DOSSIERS-DES-ARTICLES-EN-REDACTION/NOUVELS-AXES-DE-RECHERCHE-A-REGARDER-URGEMMENT/ARTICLES-EN-REDACTIONS/ARTICLE_MVOTO/Paper2_Sensors_ActuatorsB/docking_rerun/ligands/17851.pdb
REMARK  7 active torsions:
REMARK  status: ('A' for Active; 'I' for Inactive)
REMARK    1  A    between atoms: C1_1  and  C2_2
REMARK    2  A    between atoms: C2_2  and  N1_3
REMARK    3  A    between atoms: N1_3  and  C3_4
REMARK    4  A    between atoms: N3_7  and  N4_8
REMARK    5  A    between atoms: N8_13  and  C6_14
REMARK    6  A    between atoms: C6_14  and  C7_15
REMARK    7  A    between atoms: C6_14  and  C8_16
REMARK                            x       y       z     vdW  Elec       q    Type
REMARK                         _______ _______ _______ _____ _____    ______ ____
ROOT
ATOM      1  C3  UNL     1      13.039 -13.505  -0.757  0.00  0.00    +0.241 A 
ATOM      2  N2  UNL     1      13.014 -14.848  -0.549  0.00  0.00    -0.178 NA
ATOM      3  C4  UNL     1      11.833 -15.518  -0.556  0.00  0.00    +0.252 A 
ATOM      4  N3  UNL     1      11.801 -16.929  -0.338  0.00  0.00    -0.126 N 
ATOM      5  N6  UNL     1      10.678 -14.841  -0.773  0.00  0.00    -0.179 NA
ATOM      6  C5  UNL     1      10.694 -13.498  -0.983  0.00  0.00    +0.221 A 
ATOM      7  N7  UNL     1      11.879 -12.836  -0.973  0.00  0.00    -0.180 NA
ATOM      8  N8  UNL     1       9.478 -12.769  -1.215  0.00  0.00    -0.311 N 
ATOM      9  H6  UNL     1      10.887 -17.436  -0.346  0.00  0.00    +0.193 HD
ATOM     10  H7  UNL     1       9.558 -11.738  -1.368  0.00  0.00    +0.149 HD
ENDROOT
BRANCH   8  11
ATOM     11  C6  UNL     1       8.131 -13.352  -1.252  0.00  0.00    +0.067 C 
ATOM     12  C7  UNL     1       7.181 -12.629  -0.291  0.00  0.00    +0.027 C 
ATOM     13  C8  UNL     1       7.578 -13.391  -2.681  0.00  0.00    +0.027 C 
ENDBRANCH   8  11
BRANCH   4  14
ATOM     14  N4  UNL     1      12.944 -17.626  -0.119  0.00  0.00    -0.126 NA
ATOM     15  N5  UNL     1      13.889 -18.200   0.063  0.00  0.00    -0.017 NA
ENDBRANCH   4  14
BRANCH   1  16
ATOM     16  N1  UNL     1      14.276 -12.790  -0.751  0.00  0.00    -0.216 NA
BRANCH  16  18
ATOM     17  C1  UNL     1      14.824 -12.449  -3.100  0.00  0.00    +0.026 C 
ATOM     18  C2  UNL     1      14.611 -11.783  -1.749  0.00  0.00    +0.128 C 
ENDBRANCH  16  18
ENDBRANCH   1  16
TORSDOF 4
ENDMDL
MODEL 2
REMARK minimizedAffinity -4.46112299
REMARK minimizedRMSD -1
REMARK  Name = /home/tchapet/Post-Doc/ARTICLES-DOSSIERS-DES-ARTICLES-EN-REDACTION/NOUVELS-AXES-DE-RECHERCHE-A-REGARDER-URGEMMENT/ARTICLES-EN-REDACTIONS/ARTICLE_MVOTO/Paper2_Sensors_ActuatorsB/docking_rerun/ligands/17851.pdb
REMARK  7 active torsions:
REMARK  status: ('A' for Active; 'I' for Inactive)
REMARK    1  A    between atoms: C1_1  and  C2_2
REMARK    2  A    between atoms: C2_2  and  N1_3
REMARK    3  A    between atoms: N1_3  and  C3_4
REMARK    4  A    between atoms: N3_7  and  N4_8
REMARK    5  A    between atoms: N8_13  and  C6_14
REMARK    6  A    between atoms: C6_14  and  C7_15
REMARK    7  A    between atoms: C6_14  and  C8_16
REMARK                            x       y       z     vdW  Elec       q    Type
REMARK                         _______ _______ _______ _____ _____    ______ ____
ROOT
ATOM      1  C3  UNL     1      12.559 -15.988  -0.441  0.00  0.00    +0.241 A 
ATOM      2  N2  UNL     1      13.056 -14.727  -0.535  0.00  0.00    -0.178 NA
ATOM      3  C4  UNL     1      12.249 -13.701  -0.911  0.00  0.00    +0.252 A 
ATOM      4  N3  UNL     1      12.766 -12.374  -1.012  0.00  0.00    -0.126 N 
ATOM      5  N6  UNL     1      10.944 -13.941  -1.190  0.00  0.00    -0.179 NA
ATOM      6  C5  UNL     1      10.438 -15.199  -1.098  0.00  0.00    +0.221 A 
ATOM      7  N7  UNL     1      11.252 -16.219  -0.722  0.00  0.00    -0.180 NA
ATOM      8  N8  UNL     1       9.057 -15.468  -1.391  0.00  0.00    -0.311 N 
ATOM      9  H6  UNL     1      12.138 -11.591  -1.301  0.00  0.00    +0.193 HD
ATOM     10  H7  UNL     1       8.731 -16.456  -1.302  0.00  0.00    +0.149 HD
ENDROOT
BRANCH   8  11
ATOM     11  C6  UNL     1       8.067 -14.466  -1.807  0.00  0.00    +0.067 C 
ATOM     12  C7  UNL     1       7.099 -15.037  -2.849  0.00  0.00    +0.027 C 
ATOM     13  C8  UNL     1       7.326 -13.878  -0.601  0.00  0.00    +0.027 C 
ENDBRANCH   8  11
BRANCH   4  14
ATOM     14  N4  UNL     1      14.069 -12.112  -0.737  0.00  0.00    -0.126 NA
ATOM     15  N5  UNL     1      15.145 -11.896  -0.509  0.00  0.00    -0.017 NA
ENDBRANCH   4  14
BRANCH   1  16
ATOM     16  N1  UNL     1      13.398 -17.075  -0.047  0.00  0.00    -0.216 NA
BRANCH  16  18
ATOM     17  C1  UNL     1      13.113 -19.480   0.212  0.00  0.00    +0.026 C 
ATOM     18  C2  UNL     1      13.426 -18.348  -0.754  0.00  0.00    +0.128 C 
ENDBRANCH  16  18
ENDBRANCH   1  16
TORSDOF 4
ENDMDL
MODEL 3
REMARK minimizedAffinity -4.4437356
REMARK minimizedRMSD -1
REMARK  Name = /home/tchapet/Post-Doc/ARTICLES-DOSSIERS-DES-ARTICLES-EN-REDACTION/NOUVELS-AXES-DE-RECHERCHE-A-REGARDER-URGEMMENT/ARTICLES-EN-REDACTIONS/ARTICLE_MVOTO/Paper2_Sensors_ActuatorsB/docking_rerun/ligands/17851.pdb
REMARK  7 active torsions:
REMARK  status: ('A' for Active; 'I' for Inactive)
REMARK    1  A    between atoms: C1_1  and  C2_2
REMARK    2  A    between atoms: C2_2  and  N1_3
REMARK    3  A    between atoms: N1_3  and  C3_4
REMARK    4  A    between atoms: N3_7  and  N4_8
REMARK    5  A    between atoms: N8_13  and  C6_14
REMARK    6  A    between atoms: C6_14  and  C7_15
REMARK    7  A    between atoms: C6_14  and  C8_16
REMARK                            x       y       z     vdW  Elec       q    Type
REMARK                         _______ _______ _______ _____ _____    ______ ____
ROOT
ATOM      1  C3  UNL     1      -2.002 -14.379  13.474  0.00  0.00    +0.241 A 
ATOM      2  N2  UNL     1      -0.921 -15.182  13.654  0.00  0.00    -0.178 NA
ATOM      3  C4  UNL     1      -0.063 -14.953  14.682  0.00  0.00    +0.252 A 
ATOM      4  N3  UNL     1       1.075 -15.795  14.876  0.00  0.00    -0.126 N 
ATOM      5  N6  UNL     1      -0.292 -13.920  15.530  0.00  0.00    -0.179 NA
ATOM      6  C5  UNL     1      -1.371 -13.112  15.357  0.00  0.00    +0.221 A 
ATOM      7  N7  UNL     1      -2.222 -13.347  14.327  0.00  0.00    -0.180 NA
ATOM      8  N8  UNL     1      -1.625 -12.013  16.247  0.00  0.00    -0.311 N 
ATOM      9  H6  UNL     1       1.728 -15.611  15.670  0.00  0.00    +0.193 HD
ATOM     10  H7  UNL     1      -2.471 -11.429  16.060  0.00  0.00    +0.149 HD
ENDROOT
BRANCH   8  11
ATOM     11  C6  UNL     1      -0.792 -11.642  17.399  0.00  0.00    +0.067 C 
ATOM     12  C7  UNL     1      -0.735 -10.122  17.581  0.00  0.00    +0.027 C 
ATOM     13  C8  UNL     1      -1.255 -12.353  18.676  0.00  0.00    +0.027 C 
ENDBRANCH   8  11
BRANCH   4  14
ATOM     14  N4  UNL     1       1.322 -16.834  14.040  0.00  0.00    -0.126 NA
ATOM     15  N5  UNL     1       1.525 -17.694  13.350  0.00  0.00    -0.017 NA
ENDBRANCH   4  14
BRANCH   1  16
ATOM     16  N1  UNL     1      -2.910 -14.610  12.396  0.00  0.00    -0.216 NA
BRANCH  16  18
ATOM     17  C1  UNL     1      -3.153 -14.954   9.997  0.00  0.00    +0.026 C 
ATOM     18  C2  UNL     1      -2.620 -15.527  11.301  0.00  0.00    +0.128 C 
ENDBRANCH  16  18
ENDBRANCH   1  16
TORSDOF 4
ENDMDL
MODEL 4
REMARK minimizedAffinity -4.38921022
REMARK minimizedRMSD -1
REMARK  Name = /home/tchapet/Post-Doc/ARTICLES-DOSSIERS-DES-ARTICLES-EN-REDACTION/NOUVELS-AXES-DE-RECHERCHE-A-REGARDER-URGEMMENT/ARTICLES-EN-REDACTIONS/ARTICLE_MVOTO/Paper2_Sensors_ActuatorsB/docking_rerun/ligands/17851.pdb
REMARK  7 active torsions:
REMARK  status: ('A' for Active; 'I' for Inactive)
REMARK    1  A    between atoms: C1_1  and  C2_2
REMARK    2  A    between atoms: C2_2  and  N1_3
REMARK    3  A    between atoms: N1_3  and  C3_4
REMARK    4  A    between atoms: N3_7  and  N4_8
REMARK    5  A    between atoms: N8_13  and  C6_14
REMARK    6  A    between atoms: C6_14  and  C7_15
REMARK    7  A    between atoms: C6_14  and  C8_16
REMARK                            x       y       z     vdW  Elec       q    Type
REMARK                         _______ _______ _______ _____ _____    ______ ____
ROOT
ATOM      1  C3  UNL     1       0.224 -15.038  20.174  0.00  0.00    +0.241 A 
ATOM      2  N2  UNL     1      -0.439 -14.681  21.305  0.00  0.00    -0.178 NA
ATOM      3  C4  UNL     1      -1.302 -13.632  21.288  0.00  0.00    +0.252 A 
ATOM      4  N3  UNL     1      -2.002 -13.253  22.474  0.00  0.00    -0.126 N 
ATOM      5  N6  UNL     1      -1.501 -12.944  20.137  0.00  0.00    -0.179 NA
ATOM      6  C5  UNL     1      -0.842 -13.295  19.001  0.00  0.00    +0.221 A 
ATOM      7  N7  UNL     1       0.020 -14.343  19.027  0.00  0.00    -0.180 NA
ATOM      8  N8  UNL     1      -1.042 -12.574  17.774  0.00  0.00    -0.311 N 
ATOM      9  H6  UNL     1      -2.665 -12.446  22.451  0.00  0.00    +0.193 HD
ATOM     10  H7  UNL     1      -0.505 -12.893  16.937  0.00  0.00    +0.149 HD
ENDROOT
BRANCH   8  11
ATOM     11  C6  UNL     1      -1.940 -11.424  17.601  0.00  0.00    +0.067 C 
ATOM     12  C7  UNL     1      -1.167 -10.101  17.638  0.00  0.00    +0.027 C 
ATOM     13  C8  UNL     1      -2.782 -11.559  16.327  0.00  0.00    +0.027 C 
ENDBRANCH   8  11
BRANCH   4  14
ATOM     14  N4  UNL     1      -1.819 -13.928  23.637  0.00  0.00    -0.126 NA
ATOM     15  N5  UNL     1      -1.667 -14.487  24.596  0.00  0.00    -0.017 NA
ENDBRANCH   4  14
BRANCH   1  16
ATOM     16  N1  UNL     1       1.135 -16.138  20.180  0.00  0.00    -0.216 NA
BRANCH  16  18
ATOM     17  C1  UNL     1       2.734 -17.700  19.211  0.00  0.00    +0.026 C 
ATOM     18  C2  UNL     1       1.460 -16.902  18.982  0.00  0.00    +0.128 C 
ENDBRANCH  16  18
ENDBRANCH   1  16
TORSDOF 4
ENDMDL
MODEL 5
REMARK minimizedAffinity -4.28218746
REMARK minimizedRMSD -1
REMARK  Name = /home/tchapet/Post-Doc/ARTICLES-DOSSIERS-DES-ARTICLES-EN-REDACTION/NOUVELS-AXES-DE-RECHERCHE-A-REGARDER-URGEMMENT/ARTICLES-EN-REDACTIONS/ARTICLE_MVOTO/Paper2_Sensors_ActuatorsB/docking_rerun/ligands/17851.pdb
REMARK  7 active torsions:
REMARK  status: ('A' for Active; 'I' for Inactive)
REMARK    1  A    between atoms: C1_1  and  C2_2
REMARK    2  A    between atoms: C2_2  and  N1_3
REMARK    3  A    between atoms: N1_3  and  C3_4
REMARK    4  A    between atoms: N3_7  and  N4_8
REMARK    5  A    between atoms: N8_13  and  C6_14
REMARK    6  A    between atoms: C6_14  and  C7_15
REMARK    7  A    between atoms: C6_14  and  C8_16
REMARK                            x       y       z     vdW  Elec       q    Type
REMARK                         _______ _______ _______ _____ _____    ______ ____
ROOT
ATOM      1  C3  UNL     1      -1.086 -14.647  21.332  0.00  0.00    +0.241 A 
ATOM      2  N2  UNL     1      -0.098 -15.361  20.734  0.00  0.00    -0.178 NA
ATOM      3  C4  UNL     1       0.362 -14.998  19.509  0.00  0.00    +0.252 A 
ATOM      4  N3  UNL     1       1.401 -15.745  18.876  0.00  0.00    -0.126 N 
ATOM      5  N6  UNL     1      -0.170 -13.918  18.885  0.00  0.00    -0.179 NA
ATOM      6  C5  UNL     1      -1.159 -13.197  19.476  0.00  0.00    +0.221 A 
ATOM      7  N7  UNL     1      -1.613 -13.568  20.701  0.00  0.00    -0.180 NA
ATOM      8  N8  UNL     1      -1.732 -12.051  18.827  0.00  0.00    -0.311 N 
ATOM      9  H6  UNL     1       1.749 -15.458  17.934  0.00  0.00    +0.193 HD
ATOM     10  H7  UNL     1      -2.490 -11.540  19.334  0.00  0.00    +0.149 HD
ENDROOT
BRANCH   8  11
ATOM     11  C6  UNL     1      -1.341 -11.538  17.507  0.00  0.00    +0.067 C 
ATOM     12  C7  UNL     1      -2.545 -11.444  16.564  0.00  0.00    +0.027 C 
ATOM     13  C8  UNL     1      -0.602 -10.200  17.624  0.00  0.00    +0.027 C 
ENDBRANCH   8  11
BRANCH   4  14
ATOM     14  N4  UNL     1       1.948 -16.829  19.482  0.00  0.00    -0.126 NA
ATOM     15  N5  UNL     1       2.400 -17.724  19.983  0.00  0.00    -0.017 NA
ENDBRANCH   4  14
BRANCH   1  16
ATOM     16  N1  UNL     1      -1.578 -15.019  22.621  0.00  0.00    -0.216 NA
BRANCH  16  18
ATOM     17  C1  UNL     1      -0.096 -14.731  24.533  0.00  0.00    +0.026 C 
ATOM     18  C2  UNL     1      -1.339 -14.224  23.818  0.00  0.00    +0.128 C 
ENDBRANCH  16  18
ENDBRANCH   1  16
TORSDOF 4
ENDMDL
MODEL 6
REMARK minimizedAffinity -4.2807498
REMARK minimizedRMSD -1
REMARK  Name = /home/tchapet/Post-Doc/ARTICLES-DOSSIERS-DES-ARTICLES-EN-REDACTION/NOUVELS-AXES-DE-RECHERCHE-A-REGARDER-URGEMMENT/ARTICLES-EN-REDACTIONS/ARTICLE_MVOTO/Paper2_Sensors_ActuatorsB/docking_rerun/ligands/17851.pdb
REMARK  7 active torsions:
REMARK  status: ('A' for Active; 'I' for Inactive)
REMARK    1  A    between atoms: C1_1  and  C2_2
REMARK    2  A    between atoms: C2_2  and  N1_3
REMARK    3  A    between atoms: N1_3  and  C3_4
REMARK    4  A    between atoms: N3_7  and  N4_8
REMARK    5  A    between atoms: N8_13  and  C6_14
REMARK    6  A    between atoms: C6_14  and  C7_15
REMARK    7  A    between atoms: C6_14  and  C8_16
REMARK                            x       y       z     vdW  Elec       q    Type
REMARK                         _______ _______ _______ _____ _____    ______ ____
ROOT
ATOM      1  C3  UNL     1       2.462  -2.510   1.109  0.00  0.00    +0.241 A 
ATOM      2  N2  UNL     1       2.549  -3.719   1.723  0.00  0.00    -0.178 NA
ATOM      3  C4  UNL     1       3.757  -4.316   1.889  0.00  0.00    +0.252 A 
ATOM      4  N3  UNL     1       3.854  -5.587   2.534  0.00  0.00    -0.126 N 
ATOM      5  N6  UNL     1       4.878  -3.699   1.440  0.00  0.00    -0.179 NA
ATOM      6  C5  UNL     1       4.801  -2.490   0.825  0.00  0.00    +0.221 A 
ATOM      7  N7  UNL     1       3.589  -1.901   0.663  0.00  0.00    -0.180 NA
ATOM      8  N8  UNL     1       5.980  -1.825   0.344  0.00  0.00    -0.311 N 
ATOM      9  H6  UNL     1       4.788  -6.038   2.658  0.00  0.00    +0.193 HD
ATOM     10  H7  UNL     1       5.853  -0.898  -0.120  0.00  0.00    +0.149 HD
ENDROOT
BRANCH   8  11
ATOM     11  C6  UNL     1       7.351  -2.342   0.451  0.00  0.00    +0.067 C 
ATOM     12  C7  UNL     1       8.010  -2.467  -0.927  0.00  0.00    +0.027 C 
ATOM     13  C8  UNL     1       8.194  -1.499   1.413  0.00  0.00    +0.027 C 
ENDBRANCH   8  11
BRANCH   4  14
ATOM     14  N4  UNL     1       2.745  -6.221   2.991  0.00  0.00    -0.126 NA
ATOM     15  N5  UNL     1       1.830  -6.746   3.369  0.00  0.00    -0.017 NA
ENDBRANCH   4  14
BRANCH   1  16
ATOM     16  N1  UNL     1       1.196  -1.873   0.929  0.00  0.00    -0.216 NA
BRANCH  16  18
ATOM     17  C1  UNL     1       1.092   0.402   1.794  0.00  0.00    +0.026 C 
ATOM     18  C2  UNL     1       0.586  -1.025   1.945  0.00  0.00    +0.128 C 
ENDBRANCH  16  18
ENDBRANCH   1  16
TORSDOF 4
ENDMDL
MODEL 7
REMARK minimizedAffinity -4.23867464
REMARK minimizedRMSD -1
REMARK  Name = /home/tchapet/Post-Doc/ARTICLES-DOSSIERS-DES-ARTICLES-EN-REDACTION/NOUVELS-AXES-DE-RECHERCHE-A-REGARDER-URGEMMENT/ARTICLES-EN-REDACTIONS/ARTICLE_MVOTO/Paper2_Sensors_ActuatorsB/docking_rerun/ligands/17851.pdb
REMARK  7 active torsions:
REMARK  status: ('A' for Active; 'I' for Inactive)
REMARK    1  A    between atoms: C1_1  and  C2_2
REMARK    2  A    between atoms: C2_2  and  N1_3
REMARK    3  A    between atoms: N1_3  and  C3_4
REMARK    4  A    between atoms: N3_7  and  N4_8
REMARK    5  A    between atoms: N8_13  and  C6_14
REMARK    6  A    between atoms: C6_14  and  C7_15
REMARK    7  A    between atoms: C6_14  and  C8_16
REMARK                            x       y       z     vdW  Elec       q    Type
REMARK                         _______ _______ _______ _____ _____    ______ ____
ROOT
ATOM      1  C3  UNL     1      -1.494  -3.879   3.028  0.00  0.00    +0.241 A 
ATOM      2  N2  UNL     1      -0.681  -2.847   2.680  0.00  0.00    -0.178 NA
ATOM      3  C4  UNL     1       0.652  -3.050   2.523  0.00  0.00    +0.252 A 
ATOM      4  N3  UNL     1       1.511  -1.969   2.157  0.00  0.00    -0.126 N 
ATOM      5  N6  UNL     1       1.170  -4.289   2.713  0.00  0.00    -0.179 NA
ATOM      6  C5  UNL     1       0.364  -5.328   3.061  0.00  0.00    +0.221 A 
ATOM      7  N7  UNL     1      -0.968  -5.115   3.217  0.00  0.00    -0.180 NA
ATOM      8  N8  UNL     1       0.899  -6.645   3.266  0.00  0.00    -0.311 N 
ATOM      9  H6  UNL     1       2.535  -2.135   2.038  0.00  0.00    +0.193 HD
ATOM     10  H7  UNL     1       0.227  -7.400   3.532  0.00  0.00    +0.149 HD
ENDROOT
BRANCH   8  11
ATOM     11  C6  UNL     1       2.313  -7.019   3.133  0.00  0.00    +0.067 C 
ATOM     12  C7  UNL     1       2.862  -7.603   4.438  0.00  0.00    +0.027 C 
ATOM     13  C8  UNL     1       2.532  -7.965   1.947  0.00  0.00    +0.027 C 
ENDBRANCH   8  11
BRANCH   4  14
ATOM     14  N4  UNL     1       1.014  -0.722   1.962  0.00  0.00    -0.126 NA
ATOM     15  N5  UNL     1       0.603   0.308   1.800  0.00  0.00    -0.017 NA
ENDBRANCH   4  14
BRANCH   1  16
ATOM     16  N1  UNL     1      -2.898  -3.676   3.196  0.00  0.00    -0.216 NA
BRANCH  16  18
ATOM     17  C1  UNL     1      -4.315  -4.814   4.818  0.00  0.00    +0.026 C 
ATOM     18  C2  UNL     1      -3.527  -3.552   4.505  0.00  0.00    +0.128 C 
ENDBRANCH  16  18
ENDBRANCH   1  16
TORSDOF 4
ENDMDL
MODEL 8
REMARK minimizedAffinity -4.23323822
REMARK minimizedRMSD -1
REMARK  Name = /home/tchapet/Post-Doc/ARTICLES-DOSSIERS-DES-ARTICLES-EN-REDACTION/NOUVELS-AXES-DE-RECHERCHE-A-REGARDER-URGEMMENT/ARTICLES-EN-REDACTIONS/ARTICLE_MVOTO/Paper2_Sensors_ActuatorsB/docking_rerun/ligands/17851.pdb
REMARK  7 active torsions:
REMARK  status: ('A' for Active; 'I' for Inactive)
REMARK    1  A    between atoms: C1_1  and  C2_2
REMARK    2  A    between atoms: C2_2  and  N1_3
REMARK    3  A    between atoms: N1_3  and  C3_4
REMARK    4  A    between atoms: N3_7  and  N4_8
REMARK    5  A    between atoms: N8_13  and  C6_14
REMARK    6  A    between atoms: C6_14  and  C7_15
REMARK    7  A    between atoms: C6_14  and  C8_16
REMARK                            x       y       z     vdW  Elec       q    Type
REMARK                         _______ _______ _______ _____ _____    ______ ____
ROOT
ATOM      1  C3  UNL     1       8.091  -1.968   0.445  0.00  0.00    +0.241 A 
ATOM      2  N2  UNL     1       8.935  -2.971   0.091  0.00  0.00    -0.178 NA
ATOM      3  C4  UNL     1      10.278  -2.768   0.095  0.00  0.00    +0.252 A 
ATOM      4  N3  UNL     1      11.170  -3.820  -0.277  0.00  0.00    -0.126 N 
ATOM      5  N6  UNL     1      10.773  -1.558   0.455  0.00  0.00    -0.179 NA
ATOM      6  C5  UNL     1       9.936  -0.548   0.812  0.00  0.00    +0.221 A 
ATOM      7  N7  UNL     1       8.595  -0.760   0.804  0.00  0.00    -0.180 NA
ATOM      8  N8  UNL     1      10.446   0.738   1.197  0.00  0.00    -0.311 N 
ATOM      9  H6  UNL     1      12.201  -3.654  -0.270  0.00  0.00    +0.193 HD
ATOM     10  H7  UNL     1       9.750   1.472   1.459  0.00  0.00    +0.149 HD
ENDROOT
BRANCH   8  11
ATOM     11  C6  UNL     1      11.867   1.107   1.250  0.00  0.00    +0.067 C 
ATOM     12  C7  UNL     1      12.200   2.197   0.225  0.00  0.00    +0.027 C 
ATOM     13  C8  UNL     1      12.287   1.510   2.668  0.00  0.00    +0.027 C 
ENDBRANCH   8  11
BRANCH   4  14
ATOM     14  N4  UNL     1      10.696  -5.038  -0.642  0.00  0.00    -0.126 NA
ATOM     15  N5  UNL     1      10.305  -6.044  -0.942  0.00  0.00    -0.017 NA
ENDBRANCH   4  14
BRANCH   1  16
ATOM     16  N1  UNL     1       6.677  -2.170   0.444  0.00  0.00    -0.216 NA
BRANCH  16  18
ATOM     17  C1  UNL     1       5.473  -2.104  -1.673  0.00  0.00    +0.026 C 
ATOM     18  C2  UNL     1       5.765  -1.376  -0.370  0.00  0.00    +0.128 C 
ENDBRANCH  16  18
ENDBRANCH   1  16
TORSDOF 4
ENDMDL
MODEL 9
REMARK minimizedAffinity -4.16801405
REMARK minimizedRMSD -1
REMARK  Name = /home/tchapet/Post-Doc/ARTICLES-DOSSIERS-DES-ARTICLES-EN-REDACTION/NOUVELS-AXES-DE-RECHERCHE-A-REGARDER-URGEMMENT/ARTICLES-EN-REDACTIONS/ARTICLE_MVOTO/Paper2_Sensors_ActuatorsB/docking_rerun/ligands/17851.pdb
REMARK  7 active torsions:
REMARK  status: ('A' for Active; 'I' for Inactive)
REMARK    1  A    between atoms: C1_1  and  C2_2
REMARK    2  A    between atoms: C2_2  and  N1_3
REMARK    3  A    between atoms: N1_3  and  C3_4
REMARK    4  A    between atoms: N3_7  and  N4_8
REMARK    5  A    between atoms: N8_13  and  C6_14
REMARK    6  A    between atoms: C6_14  and  C7_15
REMARK    7  A    between atoms: C6_14  and  C8_16
REMARK                            x       y       z     vdW  Elec       q    Type
REMARK                         _______ _______ _______ _____ _____    ______ ____
ROOT
ATOM      1  C3  UNL     1       2.142  14.849  20.396  0.00  0.00    +0.241 A 
ATOM      2  N2  UNL     1       1.223  15.126  21.357  0.00  0.00    -0.178 NA
ATOM      3  C4  UNL     1      -0.045  15.470  21.012  0.00  0.00    +0.252 A 
ATOM      4  N3  UNL     1      -1.014  15.763  22.019  0.00  0.00    -0.126 N 
ATOM      5  N6  UNL     1      -0.390  15.536  19.702  0.00  0.00    -0.179 NA
ATOM      6  C5  UNL     1       0.523  15.259  18.734  0.00  0.00    +0.221 A 
ATOM      7  N7  UNL     1       1.788  14.917  19.088  0.00  0.00    -0.180 NA
ATOM      8  N8  UNL     1       0.171  15.325  17.342  0.00  0.00    -0.311 N 
ATOM      9  H6  UNL     1      -1.987  16.026  21.744  0.00  0.00    +0.193 HD
ATOM     10  H7  UNL     1       0.918  15.102  16.647  0.00  0.00    +0.149 HD
ENDROOT
BRANCH   8  11
ATOM     11  C6  UNL     1      -1.154  15.681  16.816  0.00  0.00    +0.067 C 
ATOM     12  C7  UNL     1      -1.089  16.939  15.944  0.00  0.00    +0.027 C 
ATOM     13  C8  UNL     1      -1.795  14.503  16.074  0.00  0.00    +0.027 C 
ENDBRANCH   8  11
BRANCH   4  14
ATOM     14  N4  UNL     1      -0.690  15.703  23.335  0.00  0.00    -0.126 NA
ATOM     15  N5  UNL     1      -0.423  15.655  24.423  0.00  0.00    -0.017 NA
ENDBRANCH   4  14
BRANCH   1  16
ATOM     16  N1  UNL     1       3.478  14.485  20.747  0.00  0.00    -0.216 NA
BRANCH  16  18
ATOM     17  C1  UNL     1       5.751  13.982  20.030  0.00  0.00    +0.026 C 
ATOM     18  C2  UNL     1       4.648  15.029  20.071  0.00  0.00    +0.128 C 
ENDBRANCH  16  18
ENDBRANCH   1  16
TORSDOF 4
ENDMDL
