MODEL 1
REMARK minimizedAffinity -5.46523428
REMARK minimizedRMSD -1
REMARK  Name = /home/tchapet/Post-Doc/ARTICLES-DOSSIERS-DES-ARTICLES-EN-REDACTION/NOUVELS-AXES-DE-RECHERCHE-A-REGARDER-URGEMMENT/ARTICLES-EN-REDACTIONS/ARTICLE_MVOTO/Paper2_Sensors_ActuatorsB/docking_rerun/ligands/17851.pdb
REMARK  7 active torsions:
REMARK  status: ('A' for Active; 'I' for Inactive)
REMARK    1  A    between atoms: C1_1  and  C2_2
REMARK    2  A    between atoms: C2_2  and  N1_3
REMARK    3  A    between atoms: N1_3  and  C3_4
REMARK    4  A    between atoms: N3_7  and  N4_8
REMARK    5  A    between atoms: N8_13  and  C6_14
REMARK    6  A    between atoms: C6_14  and  C7_15
REMARK    7  A    between atoms: C6_14  and  C8_16
REMARK                            x       y       z     vdW  Elec       q    Type
REMARK                         _______ _______ _______ _____ _____    ______ ____
ROOT
ATOM      1  C3  UNL     1       4.504  25.882  33.140  0.00  0.00    +0.241 A 
ATOM      2  N2  UNL     1       3.575  25.627  32.183  0.00  0.00    -0.178 NA
ATOM      3  C4  UNL     1       3.137  26.625  31.373  0.00  0.00    +0.252 A 
ATOM      4  N3  UNL     1       2.159  26.362  30.365  0.00  0.00    -0.126 N 
ATOM      5  N6  UNL     1       3.632  27.879  31.523  0.00  0.00    -0.179 NA
ATOM      6  C5  UNL     1       4.563  28.143  32.478  0.00  0.00    +0.221 A 
ATOM      7  N7  UNL     1       4.995  27.139  33.284  0.00  0.00    -0.180 NA
ATOM      8  N8  UNL     1       5.097  29.465  32.648  0.00  0.00    -0.311 N 
ATOM      9  H6  UNL     1       1.829  27.136  29.746  0.00  0.00    +0.193 HD
ATOM     10  H7  UNL     1       5.809  29.603  33.400  0.00  0.00    +0.149 HD
ENDROOT
BRANCH   8  11
ATOM     11  C6  UNL     1       4.723  30.642  31.851  0.00  0.00    +0.067 C 
ATOM     12  C7  UNL     1       4.400  31.843  32.746  0.00  0.00    +0.027 C 
ATOM     13  C8  UNL     1       5.798  30.977  30.811  0.00  0.00    +0.027 C 
ENDBRANCH   8  11
BRANCH   4  14
ATOM     14  N4  UNL     1       1.650  25.116  30.198  0.00  0.00    -0.126 NA
ATOM     15  N5  UNL     1       1.230  24.086  30.059  0.00  0.00    -0.017 NA
ENDBRANCH   4  14
BRANCH   1  16
ATOM     16  N1  UNL     1       4.972  24.840  33.999  0.00  0.00    -0.216 NA
BRANCH  16  18
ATOM     17  C1  UNL     1       4.512  22.904  35.404  0.00  0.00    +0.026 C 
ATOM     18  C2  UNL     1       4.387  23.505  34.012  0.00  0.00    +0.128 C 
ENDBRANCH  16  18
ENDBRANCH   1  16
TORSDOF 4
ENDMDL
MODEL 2
REMARK minimizedAffinity -5.07262611
REMARK minimizedRMSD -1
REMARK  Name = /home/tchapet/Post-Doc/ARTICLES-DOSSIERS-DES-ARTICLES-EN-REDACTION/NOUVELS-AXES-DE-RECHERCHE-A-REGARDER-URGEMMENT/ARTICLES-EN-REDACTIONS/ARTICLE_MVOTO/Paper2_Sensors_ActuatorsB/docking_rerun/ligands/17851.pdb
REMARK  7 active torsions:
REMARK  status: ('A' for Active; 'I' for Inactive)
REMARK    1  A    between atoms: C1_1  and  C2_2
REMARK    2  A    between atoms: C2_2  and  N1_3
REMARK    3  A    between atoms: N1_3  and  C3_4
REMARK    4  A    between atoms: N3_7  and  N4_8
REMARK    5  A    between atoms: N8_13  and  C6_14
REMARK    6  A    between atoms: C6_14  and  C7_15
REMARK    7  A    between atoms: C6_14  and  C8_16
REMARK                            x       y       z     vdW  Elec       q    Type
REMARK                         _______ _______ _______ _____ _____    ______ ____
ROOT
ATOM      1  C3  UNL     1     -26.702  10.647  24.644  0.00  0.00    +0.241 A 
ATOM      2  N2  UNL     1     -26.201   9.790  23.716  0.00  0.00    -0.178 NA
ATOM      3  C4  UNL     1     -24.869   9.533  23.672  0.00  0.00    +0.252 A 
ATOM      4  N3  UNL     1     -24.337   8.634  22.698  0.00  0.00    -0.126 N 
ATOM      5  N6  UNL     1     -24.039  10.135  24.561  0.00  0.00    -0.179 NA
ATOM      6  C5  UNL     1     -24.532  10.992  25.493  0.00  0.00    +0.221 A 
ATOM      7  N7  UNL     1     -25.866  11.244  25.529  0.00  0.00    -0.180 NA
ATOM      8  N8  UNL     1     -23.665  11.636  26.441  0.00  0.00    -0.311 N 
ATOM      9  H6  UNL     1     -23.310   8.442  22.673  0.00  0.00    +0.193 HD
ATOM     10  H7  UNL     1     -24.106  12.285  27.131  0.00  0.00    +0.149 HD
ENDROOT
BRANCH   8  11
ATOM     11  C6  UNL     1     -22.209  11.458  26.518  0.00  0.00    +0.067 C 
ATOM     12  C7  UNL     1     -21.493  12.796  26.733  0.00  0.00    +0.027 C 
ATOM     13  C8  UNL     1     -21.828  10.429  27.587  0.00  0.00    +0.027 C 
ENDBRANCH   8  11
BRANCH   4  14
ATOM     14  N4  UNL     1     -25.148   8.022  21.800  0.00  0.00    -0.126 NA
ATOM     15  N5  UNL     1     -25.819   7.515  21.058  0.00  0.00    -0.017 NA
ENDBRANCH   4  14
BRANCH   1  16
ATOM     16  N1  UNL     1     -28.102  10.925  24.698  0.00  0.00    -0.216 NA
BRANCH  16  18
ATOM     17  C1  UNL     1     -29.655  12.235  23.353  0.00  0.00    +0.026 C 
ATOM     18  C2  UNL     1     -28.962  10.892  23.521  0.00  0.00    +0.128 C 
ENDBRANCH  16  18
ENDBRANCH   1  16
TORSDOF 4
ENDMDL
MODEL 3
REMARK minimizedAffinity -4.95075607
REMARK minimizedRMSD -1
REMARK  Name = /home/tchapet/Post-Doc/ARTICLES-DOSSIERS-DES-ARTICLES-EN-REDACTION/NOUVELS-AXES-DE-RECHERCHE-A-REGARDER-URGEMMENT/ARTICLES-EN-REDACTIONS/ARTICLE_MVOTO/Paper2_Sensors_ActuatorsB/docking_rerun/ligands/17851.pdb
REMARK  7 active torsions:
REMARK  status: ('A' for Active; 'I' for Inactive)
REMARK    1  A    between atoms: C1_1  and  C2_2
REMARK    2  A    between atoms: C2_2  and  N1_3
REMARK    3  A    between atoms: N1_3  and  C3_4
REMARK    4  A    between atoms: N3_7  and  N4_8
REMARK    5  A    between atoms: N8_13  and  C6_14
REMARK    6  A    between atoms: C6_14  and  C7_15
REMARK    7  A    between atoms: C6_14  and  C8_16
REMARK                            x       y       z     vdW  Elec       q    Type
REMARK                         _______ _______ _______ _____ _____    ______ ____
ROOT
ATOM      1  C3  UNL     1     -12.191  21.909  11.137  0.00  0.00    +0.241 A 
ATOM      2  N2  UNL     1     -12.795  21.488   9.995  0.00  0.00    -0.178 NA
ATOM      3  C4  UNL     1     -13.442  22.376   9.197  0.00  0.00    +0.252 A 
ATOM      4  N3  UNL     1     -14.079  21.939   7.996  0.00  0.00    -0.126 N 
ATOM      5  N6  UNL     1     -13.482  23.687   9.545  0.00  0.00    -0.179 NA
ATOM      6  C5  UNL     1     -12.880  24.116  10.686  0.00  0.00    +0.221 A 
ATOM      7  N7  UNL     1     -12.236  23.221  11.478  0.00  0.00    -0.180 NA
ATOM      8  N8  UNL     1     -12.914  25.501  11.067  0.00  0.00    -0.311 N 
ATOM      9  H6  UNL     1     -14.573  22.630   7.388  0.00  0.00    +0.193 HD
ATOM     10  H7  UNL     1     -12.434  25.767  11.955  0.00  0.00    +0.149 HD
ENDROOT
BRANCH   8  11
ATOM     11  C6  UNL     1     -13.572  26.575  10.309  0.00  0.00    +0.067 C 
ATOM     12  C7  UNL     1     -14.146  27.646  11.242  0.00  0.00    +0.027 C 
ATOM     13  C8  UNL     1     -12.630  27.177   9.261  0.00  0.00    +0.027 C 
ENDBRANCH   8  11
BRANCH   4  14
ATOM     14  N4  UNL     1     -14.051  20.634   7.629  0.00  0.00    -0.126 NA
ATOM     15  N5  UNL     1     -14.028  19.555   7.325  0.00  0.00    -0.017 NA
ENDBRANCH   4  14
BRANCH   1  16
ATOM     16  N1  UNL     1     -11.508  20.983  11.984  0.00  0.00    -0.216 NA
BRANCH  16  18
ATOM     17  C1  UNL     1     -10.166  20.426  13.939  0.00  0.00    +0.026 C 
ATOM     18  C2  UNL     1     -10.302  21.331  12.724  0.00  0.00    +0.128 C 
ENDBRANCH  16  18
ENDBRANCH   1  16
TORSDOF 4
ENDMDL
MODEL 4
REMARK minimizedAffinity -4.90449333
REMARK minimizedRMSD -1
REMARK  Name = /home/tchapet/Post-Doc/ARTICLES-DOSSIERS-DES-ARTICLES-EN-REDACTION/NOUVELS-AXES-DE-RECHERCHE-A-REGARDER-URGEMMENT/ARTICLES-EN-REDACTIONS/ARTICLE_MVOTO/Paper2_Sensors_ActuatorsB/docking_rerun/ligands/17851.pdb
REMARK  7 active torsions:
REMARK  status: ('A' for Active; 'I' for Inactive)
REMARK    1  A    between atoms: C1_1  and  C2_2
REMARK    2  A    between atoms: C2_2  and  N1_3
REMARK    3  A    between atoms: N1_3  and  C3_4
REMARK    4  A    between atoms: N3_7  and  N4_8
REMARK    5  A    between atoms: N8_13  and  C6_14
REMARK    6  A    between atoms: C6_14  and  C7_15
REMARK    7  A    between atoms: C6_14  and  C8_16
REMARK                            x       y       z     vdW  Elec       q    Type
REMARK                         _______ _______ _______ _____ _____    ______ ____
ROOT
ATOM      1  C3  UNL     1     -17.351  34.499  16.232  0.00  0.00    +0.241 A 
ATOM      2  N2  UNL     1     -16.629  33.716  17.076  0.00  0.00    -0.178 NA
ATOM      3  C4  UNL     1     -16.811  33.810  18.418  0.00  0.00    +0.252 A 
ATOM      4  N3  UNL     1     -16.055  32.989  19.310  0.00  0.00    -0.126 N 
ATOM      5  N6  UNL     1     -17.717  34.689  18.914  0.00  0.00    -0.179 NA
ATOM      6  C5  UNL     1     -18.444  35.476  18.077  0.00  0.00    +0.221 A 
ATOM      7  N7  UNL     1     -18.255  35.376  16.736  0.00  0.00    -0.180 NA
ATOM      8  N8  UNL     1     -19.407  36.412  18.587  0.00  0.00    -0.311 N 
ATOM      9  H6  UNL     1     -16.202  33.068  20.341  0.00  0.00    +0.193 HD
ATOM     10  H7  UNL     1     -19.932  36.988  17.892  0.00  0.00    +0.149 HD
ENDROOT
BRANCH   8  11
ATOM     11  C6  UNL     1     -19.713  36.625  20.008  0.00  0.00    +0.067 C 
ATOM     12  C7  UNL     1     -18.893  37.782  20.589  0.00  0.00    +0.027 C 
ATOM     13  C8  UNL     1     -21.217  36.823  20.232  0.00  0.00    +0.027 C 
ENDBRANCH   8  11
BRANCH   4  14
ATOM     14  N4  UNL     1     -15.143  32.103  18.836  0.00  0.00    -0.126 NA
ATOM     15  N5  UNL     1     -14.391  31.371  18.444  0.00  0.00    -0.017 NA
ENDBRANCH   4  14
BRANCH   1  16
ATOM     16  N1  UNL     1     -17.168  34.409  14.818  0.00  0.00    -0.216 NA
BRANCH  16  18
ATOM     17  C1  UNL     1     -17.436  33.043  12.819  0.00  0.00    +0.026 C 
ATOM     18  C2  UNL     1     -18.149  33.796  13.932  0.00  0.00    +0.128 C 
ENDBRANCH  16  18
ENDBRANCH   1  16
TORSDOF 4
ENDMDL
MODEL 5
REMARK minimizedAffinity -4.89619303
REMARK minimizedRMSD -1
REMARK  Name = /home/tchapet/Post-Doc/ARTICLES-DOSSIERS-DES-ARTICLES-EN-REDACTION/NOUVELS-AXES-DE-RECHERCHE-A-REGARDER-URGEMMENT/ARTICLES-EN-REDACTIONS/ARTICLE_MVOTO/Paper2_Sensors_ActuatorsB/docking_rerun/ligands/17851.pdb
REMARK  7 active torsions:
REMARK  status: ('A' for Active; 'I' for Inactive)
REMARK    1  A    between atoms: C1_1  and  C2_2
REMARK    2  A    between atoms: C2_2  and  N1_3
REMARK    3  A    between atoms: N1_3  and  C3_4
REMARK    4  A    between atoms: N3_7  and  N4_8
REMARK    5  A    between atoms: N8_13  and  C6_14
REMARK    6  A    between atoms: C6_14  and  C7_15
REMARK    7  A    between atoms: C6_14  and  C8_16
REMARK                            x       y       z     vdW  Elec       q    Type
REMARK                         _______ _______ _______ _____ _____    ______ ____
ROOT
ATOM      1  C3  UNL     1     -16.801  20.240  39.611  0.00  0.00    +0.241 A 
ATOM      2  N2  UNL     1     -17.317  19.113  39.054  0.00  0.00    -0.178 NA
ATOM      3  C4  UNL     1     -16.924  17.891  39.496  0.00  0.00    +0.252 A 
ATOM      4  N3  UNL     1     -17.464  16.703  38.914  0.00  0.00    -0.126 N 
ATOM      5  N6  UNL     1     -16.015  17.799  40.499  0.00  0.00    -0.179 NA
ATOM      6  C5  UNL     1     -15.495  18.921  41.062  0.00  0.00    +0.221 A 
ATOM      7  N7  UNL     1     -15.892  20.139  40.613  0.00  0.00    -0.180 NA
ATOM      8  N8  UNL     1     -14.531  18.839  42.125  0.00  0.00    -0.311 N 
ATOM      9  H6  UNL     1     -17.156  15.768  39.262  0.00  0.00    +0.193 HD
ATOM     10  H7  UNL     1     -14.169  19.738  42.515  0.00  0.00    +0.149 HD
ENDROOT
BRANCH   8  11
ATOM     11  C6  UNL     1     -14.012  17.594  42.708  0.00  0.00    +0.067 C 
ATOM     12  C7  UNL     1     -12.511  17.696  42.998  0.00  0.00    +0.027 C 
ATOM     13  C8  UNL     1     -14.809  17.185  43.952  0.00  0.00    +0.027 C 
ENDBRANCH   8  11
BRANCH   4  14
ATOM     14  N4  UNL     1     -18.374  16.772  37.910  0.00  0.00    -0.126 NA
ATOM     15  N5  UNL     1     -19.126  16.829  37.082  0.00  0.00    -0.017 NA
ENDBRANCH   4  14
BRANCH   1  16
ATOM     16  N1  UNL     1     -17.206  21.531  39.153  0.00  0.00    -0.216 NA
BRANCH  16  18
ATOM     17  C1  UNL     1     -18.373  23.264  40.406  0.00  0.00    +0.026 C 
ATOM     18  C2  UNL     1     -18.518  22.096  39.442  0.00  0.00    +0.128 C 
ENDBRANCH  16  18
ENDBRANCH   1  16
TORSDOF 4
ENDMDL
MODEL 6
REMARK minimizedAffinity -4.80118847
REMARK minimizedRMSD -1
REMARK  Name = /home/tchapet/Post-Doc/ARTICLES-DOSSIERS-DES-ARTICLES-EN-REDACTION/NOUVELS-AXES-DE-RECHERCHE-A-REGARDER-URGEMMENT/ARTICLES-EN-REDACTIONS/ARTICLE_MVOTO/Paper2_Sensors_ActuatorsB/docking_rerun/ligands/17851.pdb
REMARK  7 active torsions:
REMARK  status: ('A' for Active; 'I' for Inactive)
REMARK    1  A    between atoms: C1_1  and  C2_2
REMARK    2  A    between atoms: C2_2  and  N1_3
REMARK    3  A    between atoms: N1_3  and  C3_4
REMARK    4  A    between atoms: N3_7  and  N4_8
REMARK    5  A    between atoms: N8_13  and  C6_14
REMARK    6  A    between atoms: C6_14  and  C7_15
REMARK    7  A    between atoms: C6_14  and  C8_16
REMARK                            x       y       z     vdW  Elec       q    Type
REMARK                         _______ _______ _______ _____ _____    ______ ____
ROOT
ATOM      1  C3  UNL     1     -15.996  35.934  17.333  0.00  0.00    +0.241 A 
ATOM      2  N2  UNL     1     -15.804  34.665  17.780  0.00  0.00    -0.178 NA
ATOM      3  C4  UNL     1     -16.764  34.047  18.515  0.00  0.00    +0.252 A 
ATOM      4  N3  UNL     1     -16.567  32.714  18.988  0.00  0.00    -0.126 N 
ATOM      5  N6  UNL     1     -17.918  34.702  18.800  0.00  0.00    -0.179 NA
ATOM      6  C5  UNL     1     -18.118  35.971  18.355  0.00  0.00    +0.221 A 
ATOM      7  N7  UNL     1     -17.152  36.581  17.622  0.00  0.00    -0.180 NA
ATOM      8  N8  UNL     1     -19.335  36.677  18.649  0.00  0.00    -0.311 N 
ATOM      9  H6  UNL     1     -17.312  32.247  19.552  0.00  0.00    +0.193 HD
ATOM     10  H7  UNL     1     -19.427  37.649  18.280  0.00  0.00    +0.149 HD
ENDROOT
BRANCH   8  11
ATOM     11  C6  UNL     1     -20.460  36.142  19.428  0.00  0.00    +0.067 C 
ATOM     12  C7  UNL     1     -20.328  36.495  20.914  0.00  0.00    +0.027 C 
ATOM     13  C8  UNL     1     -21.805  36.596  18.851  0.00  0.00    +0.027 C 
ENDBRANCH   8  11
BRANCH   4  14
ATOM     14  N4  UNL     1     -15.422  32.041  18.715  0.00  0.00    -0.126 NA
ATOM     15  N5  UNL     1     -14.475  31.484  18.490  0.00  0.00    -0.017 NA
ENDBRANCH   4  14
BRANCH   1  16
ATOM     16  N1  UNL     1     -14.992  36.593  16.559  0.00  0.00    -0.216 NA
BRANCH  16  18
ATOM     17  C1  UNL     1     -12.693  37.165  17.128  0.00  0.00    +0.026 C 
ATOM     18  C2  UNL     1     -14.137  37.641  17.103  0.00  0.00    +0.128 C 
ENDBRANCH  16  18
ENDBRANCH   1  16
TORSDOF 4
ENDMDL
MODEL 7
REMARK minimizedAffinity -4.74362659
REMARK minimizedRMSD -1
REMARK  Name = /home/tchapet/Post-Doc/ARTICLES-DOSSIERS-DES-ARTICLES-EN-REDACTION/NOUVELS-AXES-DE-RECHERCHE-A-REGARDER-URGEMMENT/ARTICLES-EN-REDACTIONS/ARTICLE_MVOTO/Paper2_Sensors_ActuatorsB/docking_rerun/ligands/17851.pdb
REMARK  7 active torsions:
REMARK  status: ('A' for Active; 'I' for Inactive)
REMARK    1  A    between atoms: C1_1  and  C2_2
REMARK    2  A    between atoms: C2_2  and  N1_3
REMARK    3  A    between atoms: N1_3  and  C3_4
REMARK    4  A    between atoms: N3_7  and  N4_8
REMARK    5  A    between atoms: N8_13  and  C6_14
REMARK    6  A    between atoms: C6_14  and  C7_15
REMARK    7  A    between atoms: C6_14  and  C8_16
REMARK                            x       y       z     vdW  Elec       q    Type
REMARK                         _______ _______ _______ _____ _____    ______ ____
ROOT
ATOM      1  C3  UNL     1     -16.440   3.149   6.412  0.00  0.00    +0.241 A 
ATOM      2  N2  UNL     1     -17.639   3.619   5.979  0.00  0.00    -0.178 NA
ATOM      3  C4  UNL     1     -18.581   4.013   6.874  0.00  0.00    +0.252 A 
ATOM      4  N3  UNL     1     -19.844   4.508   6.424  0.00  0.00    -0.126 N 
ATOM      5  N6  UNL     1     -18.320   3.936   8.203  0.00  0.00    -0.179 NA
ATOM      6  C5  UNL     1     -17.123   3.468   8.644  0.00  0.00    +0.221 A 
ATOM      7  N7  UNL     1     -16.187   3.076   7.743  0.00  0.00    -0.180 NA
ATOM      8  N8  UNL     1     -16.833   3.381  10.049  0.00  0.00    -0.311 N 
ATOM      9  H6  UNL     1     -20.562   4.809   7.120  0.00  0.00    +0.193 HD
ATOM     10  H7  UNL     1     -15.895   3.011  10.323  0.00  0.00    +0.149 HD
ENDROOT
BRANCH   8  11
ATOM     11  C6  UNL     1     -17.748   3.768  11.131  0.00  0.00    +0.067 C 
ATOM     12  C7  UNL     1     -18.332   2.538  11.835  0.00  0.00    +0.027 C 
ATOM     13  C8  UNL     1     -17.072   4.724  12.119  0.00  0.00    +0.027 C 
ENDBRANCH   8  11
BRANCH   4  14
ATOM     14  N4  UNL     1     -20.125   4.593   5.100  0.00  0.00    -0.126 NA
ATOM     15  N5  UNL     1     -20.358   4.663   4.006  0.00  0.00    -0.017 NA
ENDBRANCH   4  14
BRANCH   1  16
ATOM     16  N1  UNL     1     -15.441   2.732   5.480  0.00  0.00    -0.216 NA
BRANCH  16  18
ATOM     17  C1  UNL     1     -13.191   1.824   5.697  0.00  0.00    +0.026 C 
ATOM     18  C2  UNL     1     -14.676   1.502   5.639  0.00  0.00    +0.128 C 
ENDBRANCH  16  18
ENDBRANCH   1  16
TORSDOF 4
ENDMDL
MODEL 8
REMARK minimizedAffinity -4.72211933
REMARK minimizedRMSD -1
REMARK  Name = /home/tchapet/Post-Doc/ARTICLES-DOSSIERS-DES-ARTICLES-EN-REDACTION/NOUVELS-AXES-DE-RECHERCHE-A-REGARDER-URGEMMENT/ARTICLES-EN-REDACTIONS/ARTICLE_MVOTO/Paper2_Sensors_ActuatorsB/docking_rerun/ligands/17851.pdb
REMARK  7 active torsions:
REMARK  status: ('A' for Active; 'I' for Inactive)
REMARK    1  A    between atoms: C1_1  and  C2_2
REMARK    2  A    between atoms: C2_2  and  N1_3
REMARK    3  A    between atoms: N1_3  and  C3_4
REMARK    4  A    between atoms: N3_7  and  N4_8
REMARK    5  A    between atoms: N8_13  and  C6_14
REMARK    6  A    between atoms: C6_14  and  C7_15
REMARK    7  A    between atoms: C6_14  and  C8_16
REMARK                            x       y       z     vdW  Elec       q    Type
REMARK                         _______ _______ _______ _____ _____    ______ ____
ROOT
ATOM      1  C3  UNL     1     -16.112  23.611  43.402  0.00  0.00    +0.241 A 
ATOM      2  N2  UNL     1     -14.870  23.207  43.774  0.00  0.00    -0.178 NA
ATOM      3  C4  UNL     1     -14.183  23.894  44.722  0.00  0.00    +0.252 A 
ATOM      4  N3  UNL     1     -12.876  23.474  45.116  0.00  0.00    -0.126 N 
ATOM      5  N6  UNL     1     -14.743  24.986  45.299  0.00  0.00    -0.179 NA
ATOM      6  C5  UNL     1     -15.987  25.397  44.934  0.00  0.00    +0.221 A 
ATOM      7  N7  UNL     1     -16.666  24.705  43.984  0.00  0.00    -0.180 NA
ATOM      8  N8  UNL     1     -16.593  26.552  45.536  0.00  0.00    -0.311 N 
ATOM      9  H6  UNL     1     -12.355  24.008  45.847  0.00  0.00    +0.193 HD
ATOM     10  H7  UNL     1     -17.550  26.816  45.211  0.00  0.00    +0.149 HD
ENDROOT
BRANCH   8  11
ATOM     11  C6  UNL     1     -15.977  27.393  46.571  0.00  0.00    +0.067 C 
ATOM     12  C7  UNL     1     -16.404  28.858  46.429  0.00  0.00    +0.027 C 
ATOM     13  C8  UNL     1     -16.261  26.849  47.976  0.00  0.00    +0.027 C 
ENDBRANCH   8  11
BRANCH   4  14
ATOM     14  N4  UNL     1     -12.296  22.384  44.552  0.00  0.00    -0.126 NA
ATOM     15  N5  UNL     1     -11.818  21.484  44.087  0.00  0.00    -0.017 NA
ENDBRANCH   4  14
BRANCH   1  16
ATOM     16  N1  UNL     1     -16.844  22.896  42.405  0.00  0.00    -0.216 NA
BRANCH  16  18
ATOM     17  C1  UNL     1     -18.144  23.113  40.357  0.00  0.00    +0.026 C 
ATOM     18  C2  UNL     1     -18.105  23.376  41.854  0.00  0.00    +0.128 C 
ENDBRANCH  16  18
ENDBRANCH   1  16
TORSDOF 4
ENDMDL
MODEL 9
REMARK minimizedAffinity -4.6662426
REMARK minimizedRMSD -1
REMARK  Name = /home/tchapet/Post-Doc/ARTICLES-DOSSIERS-DES-ARTICLES-EN-REDACTION/NOUVELS-AXES-DE-RECHERCHE-A-REGARDER-URGEMMENT/ARTICLES-EN-REDACTIONS/ARTICLE_MVOTO/Paper2_Sensors_ActuatorsB/docking_rerun/ligands/17851.pdb
REMARK  7 active torsions:
REMARK  status: ('A' for Active; 'I' for Inactive)
REMARK    1  A    between atoms: C1_1  and  C2_2
REMARK    2  A    between atoms: C2_2  and  N1_3
REMARK    3  A    between atoms: N1_3  and  C3_4
REMARK    4  A    between atoms: N3_7  and  N4_8
REMARK    5  A    between atoms: N8_13  and  C6_14
REMARK    6  A    between atoms: C6_14  and  C7_15
REMARK    7  A    between atoms: C6_14  and  C8_16
REMARK                            x       y       z     vdW  Elec       q    Type
REMARK                         _______ _______ _______ _____ _____    ______ ____
ROOT
ATOM      1  C3  UNL     1      -8.800  25.199  15.961  0.00  0.00    +0.241 A 
ATOM      2  N2  UNL     1      -7.598  24.846  16.485  0.00  0.00    -0.178 NA
ATOM      3  C4  UNL     1      -7.020  23.667  16.137  0.00  0.00    +0.252 A 
ATOM      4  N3  UNL     1      -5.756  23.291  16.686  0.00  0.00    -0.126 N 
ATOM      5  N6  UNL     1      -7.648  22.844  15.261  0.00  0.00    -0.179 NA
ATOM      6  C5  UNL     1      -8.851  23.190  14.731  0.00  0.00    +0.221 A 
ATOM      7  N7  UNL     1      -9.422  24.370  15.086  0.00  0.00    -0.180 NA
ATOM      8  N8  UNL     1      -9.528  22.328  13.802  0.00  0.00    -0.311 N 
ATOM      9  H6  UNL     1      -5.319  22.383  16.411  0.00  0.00    +0.193 HD
ATOM     10  H7  UNL     1     -10.450  22.651  13.432  0.00  0.00    +0.149 HD
ENDROOT
BRANCH   8  11
ATOM     11  C6  UNL     1      -9.031  21.029  13.331  0.00  0.00    +0.067 C 
ATOM     12  C7  UNL     1     -10.139  19.970  13.341  0.00  0.00    +0.027 C 
ATOM     13  C8  UNL     1      -8.369  21.149  11.954  0.00  0.00    +0.027 C 
ENDBRANCH   8  11
BRANCH   4  14
ATOM     14  N4  UNL     1      -5.110  24.100  17.563  0.00  0.00    -0.126 NA
ATOM     15  N5  UNL     1      -4.576  24.767  18.288  0.00  0.00    -0.017 NA
ENDBRANCH   4  14
BRANCH   1  16
ATOM     16  N1  UNL     1      -9.417  26.436  16.321  0.00  0.00    -0.216 NA
BRANCH  16  18
ATOM     17  C1  UNL     1     -10.737  27.826  14.817  0.00  0.00    +0.026 C 
ATOM     18  C2  UNL     1     -10.776  26.786  15.926  0.00  0.00    +0.128 C 
ENDBRANCH  16  18
ENDBRANCH   1  16
TORSDOF 4
ENDMDL
