MODEL 1
REMARK minimizedAffinity -4.41132212
REMARK minimizedRMSD -1
REMARK  Name = /home/tchapet/Post-Doc/ARTICLES-DOSSIERS-DES-ARTICLES-EN-REDACTION/NOUVELS-AXES-DE-RECHERCHE-A-REGARDER-URGEMMENT/ARTICLES-EN-REDACTIONS/ARTICLE_MVOTO/Paper2_Sensors_ActuatorsB/docking_rerun/ligands/17851.pdb
REMARK  7 active torsions:
REMARK  status: ('A' for Active; 'I' for Inactive)
REMARK    1  A    between atoms: C1_1  and  C2_2
REMARK    2  A    between atoms: C2_2  and  N1_3
REMARK    3  A    between atoms: N1_3  and  C3_4
REMARK    4  A    between atoms: N3_7  and  N4_8
REMARK    5  A    between atoms: N8_13  and  C6_14
REMARK    6  A    between atoms: C6_14  and  C7_15
REMARK    7  A    between atoms: C6_14  and  C8_16
REMARK                            x       y       z     vdW  Elec       q    Type
REMARK                         _______ _______ _______ _____ _____    ______ ____
ROOT
ATOM      1  C3  UNL     1     -19.728 -25.022  -8.711  0.00  0.00    +0.241 A 
ATOM      2  N2  UNL     1     -19.132 -24.104  -9.515  0.00  0.00    -0.178 NA
ATOM      3  C4  UNL     1     -19.532 -22.807  -9.485  0.00  0.00    +0.252 A 
ATOM      4  N3  UNL     1     -18.908 -21.837 -10.328  0.00  0.00    -0.126 N 
ATOM      5  N6  UNL     1     -20.531 -22.431  -8.647  0.00  0.00    -0.179 NA
ATOM      6  C5  UNL     1     -21.133 -23.343  -7.839  0.00  0.00    +0.221 A 
ATOM      7  N7  UNL     1     -20.726 -24.638  -7.876  0.00  0.00    -0.180 NA
ATOM      8  N8  UNL     1     -22.191 -22.960  -6.946  0.00  0.00    -0.311 N 
ATOM      9  H6  UNL     1     -19.223 -20.842 -10.297  0.00  0.00    +0.193 HD
ATOM     10  H7  UNL     1     -22.613 -23.709  -6.352  0.00  0.00    +0.149 HD
ENDROOT
BRANCH   8  11
ATOM     11  C6  UNL     1     -22.730 -21.601  -6.802  0.00  0.00    +0.067 C 
ATOM     12  C7  UNL     1     -24.253 -21.619  -6.633  0.00  0.00    +0.027 C 
ATOM     13  C8  UNL     1     -22.039 -20.844  -5.663  0.00  0.00    +0.027 C 
ENDBRANCH   8  11
BRANCH   4  14
ATOM     14  N4  UNL     1     -17.908 -22.191 -11.173  0.00  0.00    -0.126 NA
ATOM     15  N5  UNL     1     -17.081 -22.483 -11.871  0.00  0.00    -0.017 NA
ENDBRANCH   4  14
BRANCH   1  16
ATOM     16  N1  UNL     1     -19.316 -26.390  -8.735  0.00  0.00    -0.216 NA
BRANCH  16  18
ATOM     17  C1  UNL     1     -18.637 -28.096  -7.134  0.00  0.00    +0.026 C 
ATOM     18  C2  UNL     1     -19.810 -27.381  -7.788  0.00  0.00    +0.128 C 
ENDBRANCH  16  18
ENDBRANCH   1  16
TORSDOF 4
ENDMDL
MODEL 2
REMARK minimizedAffinity -4.33566666
REMARK minimizedRMSD -1
REMARK  Name = /home/tchapet/Post-Doc/ARTICLES-DOSSIERS-DES-ARTICLES-EN-REDACTION/NOUVELS-AXES-DE-RECHERCHE-A-REGARDER-URGEMMENT/ARTICLES-EN-REDACTIONS/ARTICLE_MVOTO/Paper2_Sensors_ActuatorsB/docking_rerun/ligands/17851.pdb
REMARK  7 active torsions:
REMARK  status: ('A' for Active; 'I' for Inactive)
REMARK    1  A    between atoms: C1_1  and  C2_2
REMARK    2  A    between atoms: C2_2  and  N1_3
REMARK    3  A    between atoms: N1_3  and  C3_4
REMARK    4  A    between atoms: N3_7  and  N4_8
REMARK    5  A    between atoms: N8_13  and  C6_14
REMARK    6  A    between atoms: C6_14  and  C7_15
REMARK    7  A    between atoms: C6_14  and  C8_16
REMARK                            x       y       z     vdW  Elec       q    Type
REMARK                         _______ _______ _______ _____ _____    ______ ____
ROOT
ATOM      1  C3  UNL     1     -21.241 -28.918   3.222  0.00  0.00    +0.241 A 
ATOM      2  N2  UNL     1     -21.516 -30.197   2.859  0.00  0.00    -0.178 NA
ATOM      3  C4  UNL     1     -22.391 -30.941   3.585  0.00  0.00    +0.252 A 
ATOM      4  N3  UNL     1     -22.683 -32.287   3.207  0.00  0.00    -0.126 N 
ATOM      5  N6  UNL     1     -22.991 -30.398   4.674  0.00  0.00    -0.179 NA
ATOM      6  C5  UNL     1     -22.722 -29.118   5.044  0.00  0.00    +0.221 A 
ATOM      7  N7  UNL     1     -21.845 -28.383   4.313  0.00  0.00    -0.180 NA
ATOM      8  N8  UNL     1     -23.350 -28.531   6.195  0.00  0.00    -0.311 N 
ATOM      9  H6  UNL     1     -23.359 -32.850   3.771  0.00  0.00    +0.193 HD
ATOM     10  H7  UNL     1     -23.100 -27.544   6.427  0.00  0.00    +0.149 HD
ENDROOT
BRANCH   8  11
ATOM     11  C6  UNL     1     -24.314 -29.207   7.074  0.00  0.00    +0.067 C 
ATOM     12  C7  UNL     1     -23.610 -29.911   8.238  0.00  0.00    +0.027 C 
ATOM     13  C8  UNL     1     -25.398 -28.239   7.563  0.00  0.00    +0.027 C 
ENDBRANCH   8  11
BRANCH   4  14
ATOM     14  N4  UNL     1     -22.095 -32.848   2.122  0.00  0.00    -0.126 NA
ATOM     15  N5  UNL     1     -21.609 -33.312   1.225  0.00  0.00    -0.017 NA
ENDBRANCH   4  14
BRANCH   1  16
ATOM     16  N1  UNL     1     -20.322 -28.127   2.467  0.00  0.00    -0.216 NA
BRANCH  16  18
ATOM     17  C1  UNL     1     -18.104 -28.858   3.162  0.00  0.00    +0.026 C 
ATOM     18  C2  UNL     1     -19.045 -28.641   1.987  0.00  0.00    +0.128 C 
ENDBRANCH  16  18
ENDBRANCH   1  16
TORSDOF 4
ENDMDL
MODEL 3
REMARK minimizedAffinity -4.28743076
REMARK minimizedRMSD -1
REMARK  Name = /home/tchapet/Post-Doc/ARTICLES-DOSSIERS-DES-ARTICLES-EN-REDACTION/NOUVELS-AXES-DE-RECHERCHE-A-REGARDER-URGEMMENT/ARTICLES-EN-REDACTIONS/ARTICLE_MVOTO/Paper2_Sensors_ActuatorsB/docking_rerun/ligands/17851.pdb
REMARK  7 active torsions:
REMARK  status: ('A' for Active; 'I' for Inactive)
REMARK    1  A    between atoms: C1_1  and  C2_2
REMARK    2  A    between atoms: C2_2  and  N1_3
REMARK    3  A    between atoms: N1_3  and  C3_4
REMARK    4  A    between atoms: N3_7  and  N4_8
REMARK    5  A    between atoms: N8_13  and  C6_14
REMARK    6  A    between atoms: C6_14  and  C7_15
REMARK    7  A    between atoms: C6_14  and  C8_16
REMARK                            x       y       z     vdW  Elec       q    Type
REMARK                         _______ _______ _______ _____ _____    ______ ____
ROOT
ATOM      1  C3  UNL     1     -28.935  -9.531  -0.113  0.00  0.00    +0.241 A 
ATOM      2  N2  UNL     1     -28.713  -9.928   1.167  0.00  0.00    -0.178 NA
ATOM      3  C4  UNL     1     -28.552 -11.244   1.457  0.00  0.00    +0.252 A 
ATOM      4  N3  UNL     1     -28.318 -11.666   2.801  0.00  0.00    -0.126 N 
ATOM      5  N6  UNL     1     -28.612 -12.163   0.461  0.00  0.00    -0.179 NA
ATOM      6  C5  UNL     1     -28.833 -11.776  -0.823  0.00  0.00    +0.221 A 
ATOM      7  N7  UNL     1     -28.994 -10.457  -1.103  0.00  0.00    -0.180 NA
ATOM      8  N8  UNL     1     -28.900 -12.738  -1.888  0.00  0.00    -0.311 N 
ATOM      9  H6  UNL     1     -28.195 -12.681   3.014  0.00  0.00    +0.193 HD
ATOM     10  H7  UNL     1     -29.074 -12.376  -2.852  0.00  0.00    +0.149 HD
ENDROOT
BRANCH   8  11
ATOM     11  C6  UNL     1     -28.745 -14.191  -1.731  0.00  0.00    +0.067 C 
ATOM     12  C7  UNL     1     -30.053 -14.846  -1.274  0.00  0.00    +0.027 C 
ATOM     13  C8  UNL     1     -28.200 -14.836  -3.010  0.00  0.00    +0.027 C 
ENDBRANCH   8  11
BRANCH   4  14
ATOM     14  N4  UNL     1     -28.254 -10.764   3.812  0.00  0.00    -0.126 NA
ATOM     15  N5  UNL     1     -28.200 -10.019   4.648  0.00  0.00    -0.017 NA
ENDBRANCH   4  14
BRANCH   1  16
ATOM     16  N1  UNL     1     -29.107  -8.149  -0.429  0.00  0.00    -0.216 NA
BRANCH  16  18
ATOM     17  C1  UNL     1     -28.200  -5.960   0.140  0.00  0.00    +0.026 C 
ATOM     18  C2  UNL     1     -29.104  -7.100   0.583  0.00  0.00    +0.128 C 
ENDBRANCH  16  18
ENDBRANCH   1  16
TORSDOF 4
ENDMDL
MODEL 4
REMARK minimizedAffinity -4.22152376
REMARK minimizedRMSD -1
REMARK  Name = /home/tchapet/Post-Doc/ARTICLES-DOSSIERS-DES-ARTICLES-EN-REDACTION/NOUVELS-AXES-DE-RECHERCHE-A-REGARDER-URGEMMENT/ARTICLES-EN-REDACTIONS/ARTICLE_MVOTO/Paper2_Sensors_ActuatorsB/docking_rerun/ligands/17851.pdb
REMARK  7 active torsions:
REMARK  status: ('A' for Active; 'I' for Inactive)
REMARK    1  A    between atoms: C1_1  and  C2_2
REMARK    2  A    between atoms: C2_2  and  N1_3
REMARK    3  A    between atoms: N1_3  and  C3_4
REMARK    4  A    between atoms: N3_7  and  N4_8
REMARK    5  A    between atoms: N8_13  and  C6_14
REMARK    6  A    between atoms: C6_14  and  C7_15
REMARK    7  A    between atoms: C6_14  and  C8_16
REMARK                            x       y       z     vdW  Elec       q    Type
REMARK                         _______ _______ _______ _____ _____    ______ ____
ROOT
ATOM      1  C3  UNL     1     -22.169 -30.478   7.701  0.00  0.00    +0.241 A 
ATOM      2  N2  UNL     1     -23.297 -29.738   7.537  0.00  0.00    -0.178 NA
ATOM      3  C4  UNL     1     -23.532 -29.103   6.360  0.00  0.00    +0.252 A 
ATOM      4  N3  UNL     1     -24.717 -28.325   6.183  0.00  0.00    -0.126 N 
ATOM      5  N6  UNL     1     -22.637 -29.211   5.348  0.00  0.00    -0.179 NA
ATOM      6  C5  UNL     1     -21.506 -29.949   5.503  0.00  0.00    +0.221 A 
ATOM      7  N7  UNL     1     -21.278 -30.580   6.683  0.00  0.00    -0.180 NA
ATOM      8  N8  UNL     1     -20.548 -30.072   4.439  0.00  0.00    -0.311 N 
ATOM      9  H6  UNL     1     -24.889 -27.840   5.274  0.00  0.00    +0.193 HD
ATOM     10  H7  UNL     1     -19.699 -30.653   4.622  0.00  0.00    +0.149 HD
ENDROOT
BRANCH   8  11
ATOM     11  C6  UNL     1     -20.664 -29.447   3.115  0.00  0.00    +0.067 C 
ATOM     12  C7  UNL     1     -19.957 -28.088   3.074  0.00  0.00    +0.027 C 
ATOM     13  C8  UNL     1     -20.166 -30.383   2.008  0.00  0.00    +0.027 C 
ENDBRANCH   8  11
BRANCH   4  14
ATOM     14  N4  UNL     1     -25.626 -28.203   7.183  0.00  0.00    -0.126 NA
ATOM     15  N5  UNL     1     -26.377 -28.104   8.008  0.00  0.00    -0.017 NA
ENDBRANCH   4  14
BRANCH   1  16
ATOM     16  N1  UNL     1     -21.911 -31.150   8.935  0.00  0.00    -0.216 NA
BRANCH  16  18
ATOM     17  C1  UNL     1     -20.850 -29.636  10.522  0.00  0.00    +0.026 C 
ATOM     18  C2  UNL     1     -20.706 -30.922   9.722  0.00  0.00    +0.128 C 
ENDBRANCH  16  18
ENDBRANCH   1  16
TORSDOF 4
ENDMDL
MODEL 5
REMARK minimizedAffinity -4.21648598
REMARK minimizedRMSD -1
REMARK  Name = /home/tchapet/Post-Doc/ARTICLES-DOSSIERS-DES-ARTICLES-EN-REDACTION/NOUVELS-AXES-DE-RECHERCHE-A-REGARDER-URGEMMENT/ARTICLES-EN-REDACTIONS/ARTICLE_MVOTO/Paper2_Sensors_ActuatorsB/docking_rerun/ligands/17851.pdb
REMARK  7 active torsions:
REMARK  status: ('A' for Active; 'I' for Inactive)
REMARK    1  A    between atoms: C1_1  and  C2_2
REMARK    2  A    between atoms: C2_2  and  N1_3
REMARK    3  A    between atoms: N1_3  and  C3_4
REMARK    4  A    between atoms: N3_7  and  N4_8
REMARK    5  A    between atoms: N8_13  and  C6_14
REMARK    6  A    between atoms: C6_14  and  C7_15
REMARK    7  A    between atoms: C6_14  and  C8_16
REMARK                            x       y       z     vdW  Elec       q    Type
REMARK                         _______ _______ _______ _____ _____    ______ ____
ROOT
ATOM      1  C3  UNL     1     -21.093 -28.704   4.133  0.00  0.00    +0.241 A 
ATOM      2  N2  UNL     1     -20.603 -29.813   4.745  0.00  0.00    -0.178 NA
ATOM      3  C4  UNL     1     -21.357 -30.480   5.656  0.00  0.00    +0.252 A 
ATOM      4  N3  UNL     1     -20.847 -31.647   6.302  0.00  0.00    -0.126 N 
ATOM      5  N6  UNL     1     -22.603 -30.034   5.953  0.00  0.00    -0.179 NA
ATOM      6  C5  UNL     1     -23.101 -28.925   5.345  0.00  0.00    +0.221 A 
ATOM      7  N7  UNL     1     -22.340 -28.264   4.436  0.00  0.00    -0.180 NA
ATOM      8  N8  UNL     1     -24.419 -28.441   5.649  0.00  0.00    -0.311 N 
ATOM      9  H6  UNL     1     -21.435 -32.154   7.001  0.00  0.00    +0.193 HD
ATOM     10  H7  UNL     1     -24.743 -27.583   5.148  0.00  0.00    +0.149 HD
ENDROOT
BRANCH   8  11
ATOM     11  C6  UNL     1     -25.349 -29.053   6.608  0.00  0.00    +0.067 C 
ATOM     12  C7  UNL     1     -25.705 -28.082   7.739  0.00  0.00    +0.027 C 
ATOM     13  C8  UNL     1     -26.599 -29.595   5.906  0.00  0.00    +0.027 C 
ENDBRANCH   8  11
BRANCH   4  14
ATOM     14  N4  UNL     1     -19.603 -32.111   6.021  0.00  0.00    -0.126 NA
ATOM     15  N5  UNL     1     -18.576 -32.494   5.788  0.00  0.00    -0.017 NA
ENDBRANCH   4  14
BRANCH   1  16
ATOM     16  N1  UNL     1     -20.308 -27.994   3.173  0.00  0.00    -0.216 NA
BRANCH  16  18
ATOM     17  C1  UNL     1     -18.837 -28.883   1.447  0.00  0.00    +0.026 C 
ATOM     18  C2  UNL     1     -18.927 -28.345   2.866  0.00  0.00    +0.128 C 
ENDBRANCH  16  18
ENDBRANCH   1  16
TORSDOF 4
ENDMDL
MODEL 6
REMARK minimizedAffinity -4.19273043
REMARK minimizedRMSD -1
REMARK  Name = /home/tchapet/Post-Doc/ARTICLES-DOSSIERS-DES-ARTICLES-EN-REDACTION/NOUVELS-AXES-DE-RECHERCHE-A-REGARDER-URGEMMENT/ARTICLES-EN-REDACTIONS/ARTICLE_MVOTO/Paper2_Sensors_ActuatorsB/docking_rerun/ligands/17851.pdb
REMARK  7 active torsions:
REMARK  status: ('A' for Active; 'I' for Inactive)
REMARK    1  A    between atoms: C1_1  and  C2_2
REMARK    2  A    between atoms: C2_2  and  N1_3
REMARK    3  A    between atoms: N1_3  and  C3_4
REMARK    4  A    between atoms: N3_7  and  N4_8
REMARK    5  A    between atoms: N8_13  and  C6_14
REMARK    6  A    between atoms: C6_14  and  C7_15
REMARK    7  A    between atoms: C6_14  and  C8_16
REMARK                            x       y       z     vdW  Elec       q    Type
REMARK                         _______ _______ _______ _____ _____    ______ ____
ROOT
ATOM      1  C3  UNL     1     -24.784 -30.177   3.629  0.00  0.00    +0.241 A 
ATOM      2  N2  UNL     1     -24.814 -29.629   4.872  0.00  0.00    -0.178 NA
ATOM      3  C4  UNL     1     -23.695 -29.068   5.399  0.00  0.00    +0.252 A 
ATOM      4  N3  UNL     1     -23.721 -28.491   6.705  0.00  0.00    -0.126 N 
ATOM      5  N6  UNL     1     -22.546 -29.058   4.678  0.00  0.00    -0.179 NA
ATOM      6  C5  UNL     1     -22.507 -29.604   3.434  0.00  0.00    +0.221 A 
ATOM      7  N7  UNL     1     -23.630 -30.162   2.915  0.00  0.00    -0.180 NA
ATOM      8  N8  UNL     1     -21.297 -29.599   2.659  0.00  0.00    -0.311 N 
ATOM      9  H6  UNL     1     -22.855 -28.061   7.101  0.00  0.00    +0.193 HD
ATOM     10  H7  UNL     1     -21.333 -30.035   1.711  0.00  0.00    +0.149 HD
ENDROOT
BRANCH   8  11
ATOM     11  C6  UNL     1     -20.013 -29.032   3.092  0.00  0.00    +0.067 C 
ATOM     12  C7  UNL     1     -19.161 -30.074   3.826  0.00  0.00    +0.027 C 
ATOM     13  C8  UNL     1     -19.256 -28.401   1.918  0.00  0.00    +0.027 C 
ENDBRANCH   8  11
BRANCH   4  14
ATOM     14  N4  UNL     1     -24.860 -28.491   7.443  0.00  0.00    -0.126 NA
ATOM     15  N5  UNL     1     -25.800 -28.490   8.052  0.00  0.00    -0.017 NA
ENDBRANCH   4  14
BRANCH   1  16
ATOM     16  N1  UNL     1     -25.955 -30.770   3.066  0.00  0.00    -0.216 NA
BRANCH  16  18
ATOM     17  C1  UNL     1     -26.115 -32.227   1.120  0.00  0.00    +0.026 C 
ATOM     18  C2  UNL     1     -26.008 -32.161   2.635  0.00  0.00    +0.128 C 
ENDBRANCH  16  18
ENDBRANCH   1  16
TORSDOF 4
ENDMDL
MODEL 7
REMARK minimizedAffinity -4.12309599
REMARK minimizedRMSD -1
REMARK  Name = /home/tchapet/Post-Doc/ARTICLES-DOSSIERS-DES-ARTICLES-EN-REDACTION/NOUVELS-AXES-DE-RECHERCHE-A-REGARDER-URGEMMENT/ARTICLES-EN-REDACTIONS/ARTICLE_MVOTO/Paper2_Sensors_ActuatorsB/docking_rerun/ligands/17851.pdb
REMARK  7 active torsions:
REMARK  status: ('A' for Active; 'I' for Inactive)
REMARK    1  A    between atoms: C1_1  and  C2_2
REMARK    2  A    between atoms: C2_2  and  N1_3
REMARK    3  A    between atoms: N1_3  and  C3_4
REMARK    4  A    between atoms: N3_7  and  N4_8
REMARK    5  A    between atoms: N8_13  and  C6_14
REMARK    6  A    between atoms: C6_14  and  C7_15
REMARK    7  A    between atoms: C6_14  and  C8_16
REMARK                            x       y       z     vdW  Elec       q    Type
REMARK                         _______ _______ _______ _____ _____    ______ ____
ROOT
ATOM      1  C3  UNL     1      17.511   5.011  13.180  0.00  0.00    +0.241 A 
ATOM      2  N2  UNL     1      16.668   5.956  13.674  0.00  0.00    -0.178 NA
ATOM      3  C4  UNL     1      15.603   6.371  12.942  0.00  0.00    +0.252 A 
ATOM      4  N3  UNL     1      14.715   7.365  13.456  0.00  0.00    -0.126 N 
ATOM      5  N6  UNL     1      15.383   5.838  11.714  0.00  0.00    -0.179 NA
ATOM      6  C5  UNL     1      16.220   4.892  11.213  0.00  0.00    +0.221 A 
ATOM      7  N7  UNL     1      17.283   4.483  11.951  0.00  0.00    -0.180 NA
ATOM      8  N8  UNL     1      15.998   4.318   9.914  0.00  0.00    -0.311 N 
ATOM      9  H6  UNL     1      13.898   7.677  12.886  0.00  0.00    +0.193 HD
ATOM     10  H7  UNL     1      16.678   3.596   9.586  0.00  0.00    +0.149 HD
ENDROOT
BRANCH   8  11
ATOM     11  C6  UNL     1      14.894   4.664   9.009  0.00  0.00    +0.067 C 
ATOM     12  C7  UNL     1      15.360   5.608   7.895  0.00  0.00    +0.027 C 
ATOM     13  C8  UNL     1      14.216   3.409   8.449  0.00  0.00    +0.027 C 
ENDBRANCH   8  11
BRANCH   4  14
ATOM     14  N4  UNL     1      14.917   7.911  14.681  0.00  0.00    -0.126 NA
ATOM     15  N5  UNL     1      15.083   8.363  15.693  0.00  0.00    -0.017 NA
ENDBRANCH   4  14
BRANCH   1  16
ATOM     16  N1  UNL     1      18.634   4.566  13.942  0.00  0.00    -0.216 NA
BRANCH  16  18
ATOM     17  C1  UNL     1      18.623   3.270  16.005  0.00  0.00    +0.026 C 
ATOM     18  C2  UNL     1      18.693   4.662  15.395  0.00  0.00    +0.128 C 
ENDBRANCH  16  18
ENDBRANCH   1  16
TORSDOF 4
ENDMDL
MODEL 8
REMARK minimizedAffinity -4.10743141
REMARK minimizedRMSD -1
REMARK  Name = /home/tchapet/Post-Doc/ARTICLES-DOSSIERS-DES-ARTICLES-EN-REDACTION/NOUVELS-AXES-DE-RECHERCHE-A-REGARDER-URGEMMENT/ARTICLES-EN-REDACTIONS/ARTICLE_MVOTO/Paper2_Sensors_ActuatorsB/docking_rerun/ligands/17851.pdb
REMARK  7 active torsions:
REMARK  status: ('A' for Active; 'I' for Inactive)
REMARK    1  A    between atoms: C1_1  and  C2_2
REMARK    2  A    between atoms: C2_2  and  N1_3
REMARK    3  A    between atoms: N1_3  and  C3_4
REMARK    4  A    between atoms: N3_7  and  N4_8
REMARK    5  A    between atoms: N8_13  and  C6_14
REMARK    6  A    between atoms: C6_14  and  C7_15
REMARK    7  A    between atoms: C6_14  and  C8_16
REMARK                            x       y       z     vdW  Elec       q    Type
REMARK                         _______ _______ _______ _____ _____    ______ ____
ROOT
ATOM      1  C3  UNL     1       0.334  -8.049   2.408  0.00  0.00    +0.241 A 
ATOM      2  N2  UNL     1      -0.297  -8.907   3.252  0.00  0.00    -0.178 NA
ATOM      3  C4  UNL     1      -1.240  -9.762   2.779  0.00  0.00    +0.252 A 
ATOM      4  N3  UNL     1      -1.905 -10.665   3.662  0.00  0.00    -0.126 N 
ATOM      5  N6  UNL     1      -1.549  -9.757   1.458  0.00  0.00    -0.179 NA
ATOM      6  C5  UNL     1      -0.923  -8.902   0.606  0.00  0.00    +0.221 A 
ATOM      7  N7  UNL     1       0.018  -8.050   1.089  0.00  0.00    -0.180 NA
ATOM      8  N8  UNL     1      -1.240  -8.886  -0.795  0.00  0.00    -0.311 N 
ATOM      9  H6  UNL     1      -2.628 -11.320   3.288  0.00  0.00    +0.193 HD
ATOM     10  H7  UNL     1      -0.724  -8.205  -1.396  0.00  0.00    +0.149 HD
ENDROOT
BRANCH   8  11
ATOM     11  C6  UNL     1      -2.232  -9.747  -1.451  0.00  0.00    +0.067 C 
ATOM     12  C7  UNL     1      -3.603  -9.066  -1.524  0.00  0.00    +0.027 C 
ATOM     13  C8  UNL     1      -1.748 -10.206  -2.832  0.00  0.00    +0.027 C 
ENDBRANCH   8  11
BRANCH   4  14
ATOM     14  N4  UNL     1      -1.611 -10.687   4.986  0.00  0.00    -0.126 NA
ATOM     15  N5  UNL     1      -1.368 -10.705   6.080  0.00  0.00    -0.017 NA
ENDBRANCH   4  14
BRANCH   1  16
ATOM     16  N1  UNL     1       1.327  -7.145   2.895  0.00  0.00    -0.216 NA
BRANCH  16  18
ATOM     17  C1  UNL     1       0.557  -4.885   3.384  0.00  0.00    +0.026 C 
ATOM     18  C2  UNL     1       1.071  -6.192   3.968  0.00  0.00    +0.128 C 
ENDBRANCH  16  18
ENDBRANCH   1  16
TORSDOF 4
ENDMDL
MODEL 9
REMARK minimizedAffinity -4.05839539
REMARK minimizedRMSD -1
REMARK  Name = /home/tchapet/Post-Doc/ARTICLES-DOSSIERS-DES-ARTICLES-EN-REDACTION/NOUVELS-AXES-DE-RECHERCHE-A-REGARDER-URGEMMENT/ARTICLES-EN-REDACTIONS/ARTICLE_MVOTO/Paper2_Sensors_ActuatorsB/docking_rerun/ligands/17851.pdb
REMARK  7 active torsions:
REMARK  status: ('A' for Active; 'I' for Inactive)
REMARK    1  A    between atoms: C1_1  and  C2_2
REMARK    2  A    between atoms: C2_2  and  N1_3
REMARK    3  A    between atoms: N1_3  and  C3_4
REMARK    4  A    between atoms: N3_7  and  N4_8
REMARK    5  A    between atoms: N8_13  and  C6_14
REMARK    6  A    between atoms: C6_14  and  C7_15
REMARK    7  A    between atoms: C6_14  and  C8_16
REMARK                            x       y       z     vdW  Elec       q    Type
REMARK                         _______ _______ _______ _____ _____    ______ ____
ROOT
ATOM      1  C3  UNL     1      -2.608 -10.303  -3.315  0.00  0.00    +0.241 A 
ATOM      2  N2  UNL     1      -1.902 -11.325  -2.765  0.00  0.00    -0.178 NA
ATOM      3  C4  UNL     1      -1.093 -12.092  -3.540  0.00  0.00    +0.252 A 
ATOM      4  N3  UNL     1      -0.349 -13.167  -2.966  0.00  0.00    -0.126 N 
ATOM      5  N6  UNL     1      -0.991 -11.832  -4.867  0.00  0.00    -0.179 NA
ATOM      6  C5  UNL     1      -1.693 -10.811  -5.426  0.00  0.00    +0.221 A 
ATOM      7  N7  UNL     1      -2.501 -10.050  -4.644  0.00  0.00    -0.180 NA
ATOM      8  N8  UNL     1      -1.596 -10.525  -6.831  0.00  0.00    -0.311 N 
ATOM      9  H6  UNL     1       0.272 -13.751  -3.570  0.00  0.00    +0.193 HD
ATOM     10  H7  UNL     1      -2.162  -9.728  -7.199  0.00  0.00    +0.149 HD
ENDROOT
BRANCH   8  11
ATOM     11  C6  UNL     1      -0.766 -11.262  -7.792  0.00  0.00    +0.067 C 
ATOM     12  C7  UNL     1      -1.590 -12.301  -8.561  0.00  0.00    +0.027 C 
ATOM     13  C8  UNL     1      -0.024 -10.310  -8.736  0.00  0.00    +0.027 C 
ENDBRANCH   8  11
BRANCH   4  14
ATOM     14  N4  UNL     1      -0.435 -13.444  -1.641  0.00  0.00    -0.126 NA
ATOM     15  N5  UNL     1      -0.506 -13.673  -0.546  0.00  0.00    -0.017 NA
ENDBRANCH   4  14
BRANCH   1  16
ATOM     16  N1  UNL     1      -3.463  -9.490  -2.509  0.00  0.00    -0.216 NA
BRANCH  16  18
ATOM     17  C1  UNL     1      -3.683  -9.841  -0.109  0.00  0.00    +0.026 C 
ATOM     18  C2  UNL     1      -3.068  -8.981  -1.202  0.00  0.00    +0.128 C 
ENDBRANCH  16  18
ENDBRANCH   1  16
TORSDOF 4
ENDMDL
