MODEL 1
REMARK minimizedAffinity -5.47177696
REMARK minimizedRMSD -1
REMARK  Name = /home/tchapet/Post-Doc/ARTICLES-DOSSIERS-DES-ARTICLES-EN-REDACTION/NOUVELS-AXES-DE-RECHERCHE-A-REGARDER-URGEMMENT/ARTICLES-EN-REDACTIONS/ARTICLE_MVOTO/Paper2_Sensors_ActuatorsB/docking_rerun/ligands/17851.pdb
REMARK  7 active torsions:
REMARK  status: ('A' for Active; 'I' for Inactive)
REMARK    1  A    between atoms: C1_1  and  C2_2
REMARK    2  A    between atoms: C2_2  and  N1_3
REMARK    3  A    between atoms: N1_3  and  C3_4
REMARK    4  A    between atoms: N3_7  and  N4_8
REMARK    5  A    between atoms: N8_13  and  C6_14
REMARK    6  A    between atoms: C6_14  and  C7_15
REMARK    7  A    between atoms: C6_14  and  C8_16
REMARK                            x       y       z     vdW  Elec       q    Type
REMARK                         _______ _______ _______ _____ _____    ______ ____
ROOT
ATOM      1  C3  UNL     1       4.504  25.885  33.127  0.00  0.00    +0.241 A 
ATOM      2  N2  UNL     1       3.574  25.636  32.168  0.00  0.00    -0.178 NA
ATOM      3  C4  UNL     1       3.141  26.638  31.360  0.00  0.00    +0.252 A 
ATOM      4  N3  UNL     1       2.164  26.381  30.351  0.00  0.00    -0.126 N 
ATOM      5  N6  UNL     1       3.642  27.889  31.514  0.00  0.00    -0.179 NA
ATOM      6  C5  UNL     1       4.573  28.146  32.470  0.00  0.00    +0.221 A 
ATOM      7  N7  UNL     1       5.000  27.139  33.274  0.00  0.00    -0.180 NA
ATOM      8  N8  UNL     1       5.113  29.467  32.644  0.00  0.00    -0.311 N 
ATOM      9  H6  UNL     1       1.837  27.158  29.734  0.00  0.00    +0.193 HD
ATOM     10  H7  UNL     1       5.824  29.599  33.397  0.00  0.00    +0.149 HD
ENDROOT
BRANCH   8  11
ATOM     11  C6  UNL     1       4.744  30.646  31.850  0.00  0.00    +0.067 C 
ATOM     12  C7  UNL     1       4.374  31.831  32.748  0.00  0.00    +0.027 C 
ATOM     13  C8  UNL     1       5.845  31.011  30.848  0.00  0.00    +0.027 C 
ENDBRANCH   8  11
BRANCH   4  14
ATOM     14  N4  UNL     1       1.650  25.138  30.180  0.00  0.00    -0.126 NA
ATOM     15  N5  UNL     1       1.225  24.110  30.039  0.00  0.00    -0.017 NA
ENDBRANCH   4  14
BRANCH   1  16
ATOM     16  N1  UNL     1       4.967  24.839  33.983  0.00  0.00    -0.216 NA
BRANCH  16  18
ATOM     17  C1  UNL     1       4.611  22.917  35.437  0.00  0.00    +0.026 C 
ATOM     18  C2  UNL     1       4.294  23.550  34.091  0.00  0.00    +0.128 C 
ENDBRANCH  16  18
ENDBRANCH   1  16
TORSDOF 4
ENDMDL
MODEL 2
REMARK minimizedAffinity -5.07154083
REMARK minimizedRMSD -1
REMARK  Name = /home/tchapet/Post-Doc/ARTICLES-DOSSIERS-DES-ARTICLES-EN-REDACTION/NOUVELS-AXES-DE-RECHERCHE-A-REGARDER-URGEMMENT/ARTICLES-EN-REDACTIONS/ARTICLE_MVOTO/Paper2_Sensors_ActuatorsB/docking_rerun/ligands/17851.pdb
REMARK  7 active torsions:
REMARK  status: ('A' for Active; 'I' for Inactive)
REMARK    1  A    between atoms: C1_1  and  C2_2
REMARK    2  A    between atoms: C2_2  and  N1_3
REMARK    3  A    between atoms: N1_3  and  C3_4
REMARK    4  A    between atoms: N3_7  and  N4_8
REMARK    5  A    between atoms: N8_13  and  C6_14
REMARK    6  A    between atoms: C6_14  and  C7_15
REMARK    7  A    between atoms: C6_14  and  C8_16
REMARK                            x       y       z     vdW  Elec       q    Type
REMARK                         _______ _______ _______ _____ _____    ______ ____
ROOT
ATOM      1  C3  UNL     1     -26.707  10.644  24.647  0.00  0.00    +0.241 A 
ATOM      2  N2  UNL     1     -26.205   9.789  23.718  0.00  0.00    -0.178 NA
ATOM      3  C4  UNL     1     -24.872   9.535  23.674  0.00  0.00    +0.252 A 
ATOM      4  N3  UNL     1     -24.339   8.638  22.698  0.00  0.00    -0.126 N 
ATOM      5  N6  UNL     1     -24.043  10.138  24.562  0.00  0.00    -0.179 NA
ATOM      6  C5  UNL     1     -24.537  10.993  25.496  0.00  0.00    +0.221 A 
ATOM      7  N7  UNL     1     -25.871  11.242  25.532  0.00  0.00    -0.180 NA
ATOM      8  N8  UNL     1     -23.671  11.639  26.443  0.00  0.00    -0.311 N 
ATOM      9  H6  UNL     1     -23.312   8.448  22.673  0.00  0.00    +0.193 HD
ATOM     10  H7  UNL     1     -24.113  12.286  27.134  0.00  0.00    +0.149 HD
ENDROOT
BRANCH   8  11
ATOM     11  C6  UNL     1     -22.214  11.464  26.519  0.00  0.00    +0.067 C 
ATOM     12  C7  UNL     1     -21.502  12.802  26.742  0.00  0.00    +0.027 C 
ATOM     13  C8  UNL     1     -21.830  10.428  27.582  0.00  0.00    +0.027 C 
ENDBRANCH   8  11
BRANCH   4  14
ATOM     14  N4  UNL     1     -25.149   8.025  21.800  0.00  0.00    -0.126 NA
ATOM     15  N5  UNL     1     -25.819   7.518  21.058  0.00  0.00    -0.017 NA
ENDBRANCH   4  14
BRANCH   1  16
ATOM     16  N1  UNL     1     -28.108  10.919  24.703  0.00  0.00    -0.216 NA
BRANCH  16  18
ATOM     17  C1  UNL     1     -29.649  12.238  23.355  0.00  0.00    +0.026 C 
ATOM     18  C2  UNL     1     -28.967  10.890  23.526  0.00  0.00    +0.128 C 
ENDBRANCH  16  18
ENDBRANCH   1  16
TORSDOF 4
ENDMDL
MODEL 3
REMARK minimizedAffinity -4.92396069
REMARK minimizedRMSD -1
REMARK  Name = /home/tchapet/Post-Doc/ARTICLES-DOSSIERS-DES-ARTICLES-EN-REDACTION/NOUVELS-AXES-DE-RECHERCHE-A-REGARDER-URGEMMENT/ARTICLES-EN-REDACTIONS/ARTICLE_MVOTO/Paper2_Sensors_ActuatorsB/docking_rerun/ligands/17851.pdb
REMARK  7 active torsions:
REMARK  status: ('A' for Active; 'I' for Inactive)
REMARK    1  A    between atoms: C1_1  and  C2_2
REMARK    2  A    between atoms: C2_2  and  N1_3
REMARK    3  A    between atoms: N1_3  and  C3_4
REMARK    4  A    between atoms: N3_7  and  N4_8
REMARK    5  A    between atoms: N8_13  and  C6_14
REMARK    6  A    between atoms: C6_14  and  C7_15
REMARK    7  A    between atoms: C6_14  and  C8_16
REMARK                            x       y       z     vdW  Elec       q    Type
REMARK                         _______ _______ _______ _____ _____    ______ ____
ROOT
ATOM      1  C3  UNL     1     -16.772  20.336  39.525  0.00  0.00    +0.241 A 
ATOM      2  N2  UNL     1     -17.273  19.176  39.026  0.00  0.00    -0.178 NA
ATOM      3  C4  UNL     1     -16.839  17.982  39.506  0.00  0.00    +0.252 A 
ATOM      4  N3  UNL     1     -17.362  16.760  38.985  0.00  0.00    -0.126 N 
ATOM      5  N6  UNL     1     -15.903  17.953  40.488  0.00  0.00    -0.179 NA
ATOM      6  C5  UNL     1     -15.397  19.108  40.993  0.00  0.00    +0.221 A 
ATOM      7  N7  UNL     1     -15.836  20.297  40.507  0.00  0.00    -0.180 NA
ATOM      8  N8  UNL     1     -14.406  19.092  42.033  0.00  0.00    -0.311 N 
ATOM      9  H6  UNL     1     -17.023  15.846  39.361  0.00  0.00    +0.193 HD
ATOM     10  H7  UNL     1     -14.057  20.015  42.378  0.00  0.00    +0.149 HD
ENDROOT
BRANCH   8  11
ATOM     11  C6  UNL     1     -13.842  17.885  42.651  0.00  0.00    +0.067 C 
ATOM     12  C7  UNL     1     -12.335  18.031  42.890  0.00  0.00    +0.027 C 
ATOM     13  C8  UNL     1     -14.591  17.512  43.935  0.00  0.00    +0.027 C 
ENDBRANCH   8  11
BRANCH   4  14
ATOM     14  N4  UNL     1     -18.299  16.766  38.003  0.00  0.00    -0.126 NA
ATOM     15  N5  UNL     1     -19.072  16.771  37.192  0.00  0.00    -0.017 NA
ENDBRANCH   4  14
BRANCH   1  16
ATOM     16  N1  UNL     1     -17.220  21.598  39.027  0.00  0.00    -0.216 NA
BRANCH  16  18
ATOM     17  C1  UNL     1     -18.154  23.187  40.619  0.00  0.00    +0.026 C 
ATOM     18  C2  UNL     1     -18.454  22.231  39.475  0.00  0.00    +0.128 C 
ENDBRANCH  16  18
ENDBRANCH   1  16
TORSDOF 4
ENDMDL
MODEL 4
REMARK minimizedAffinity -4.85093021
REMARK minimizedRMSD -1
REMARK  Name = /home/tchapet/Post-Doc/ARTICLES-DOSSIERS-DES-ARTICLES-EN-REDACTION/NOUVELS-AXES-DE-RECHERCHE-A-REGARDER-URGEMMENT/ARTICLES-EN-REDACTIONS/ARTICLE_MVOTO/Paper2_Sensors_ActuatorsB/docking_rerun/ligands/17851.pdb
REMARK  7 active torsions:
REMARK  status: ('A' for Active; 'I' for Inactive)
REMARK    1  A    between atoms: C1_1  and  C2_2
REMARK    2  A    between atoms: C2_2  and  N1_3
REMARK    3  A    between atoms: N1_3  and  C3_4
REMARK    4  A    between atoms: N3_7  and  N4_8
REMARK    5  A    between atoms: N8_13  and  C6_14
REMARK    6  A    between atoms: C6_14  and  C7_15
REMARK    7  A    between atoms: C6_14  and  C8_16
REMARK                            x       y       z     vdW  Elec       q    Type
REMARK                         _______ _______ _______ _____ _____    ______ ____
ROOT
ATOM      1  C3  UNL     1     -12.242  21.879  11.179  0.00  0.00    +0.241 A 
ATOM      2  N2  UNL     1     -12.817  21.469  10.017  0.00  0.00    -0.178 NA
ATOM      3  C4  UNL     1     -13.411  22.371   9.194  0.00  0.00    +0.252 A 
ATOM      4  N3  UNL     1     -14.017  21.945   7.973  0.00  0.00    -0.126 N 
ATOM      5  N6  UNL     1     -13.429  23.683   9.536  0.00  0.00    -0.179 NA
ATOM      6  C5  UNL     1     -12.856  24.102  10.695  0.00  0.00    +0.221 A 
ATOM      7  N7  UNL     1     -12.264  23.193  11.513  0.00  0.00    -0.180 NA
ATOM      8  N8  UNL     1     -12.867  25.489  11.070  0.00  0.00    -0.311 N 
ATOM      9  H6  UNL     1     -14.471  22.646   7.345  0.00  0.00    +0.193 HD
ATOM     10  H7  UNL     1     -12.411  25.745  11.974  0.00  0.00    +0.149 HD
ENDROOT
BRANCH   8  11
ATOM     11  C6  UNL     1     -13.468  26.576  10.286  0.00  0.00    +0.067 C 
ATOM     12  C7  UNL     1     -14.140  27.613  11.193  0.00  0.00    +0.027 C 
ATOM     13  C8  UNL     1     -12.444  27.218   9.344  0.00  0.00    +0.027 C 
ENDBRANCH   8  11
BRANCH   4  14
ATOM     14  N4  UNL     1     -14.011  20.637   7.611  0.00  0.00    -0.126 NA
ATOM     15  N5  UNL     1     -14.005  19.557   7.313  0.00  0.00    -0.017 NA
ENDBRANCH   4  14
BRANCH   1  16
ATOM     16  N1  UNL     1     -11.615  20.939  12.052  0.00  0.00    -0.216 NA
BRANCH  16  18
ATOM     17  C1  UNL     1      -9.903  20.982  13.786  0.00  0.00    +0.026 C 
ATOM     18  C2  UNL     1     -10.177  20.920  12.291  0.00  0.00    +0.128 C 
ENDBRANCH  16  18
ENDBRANCH   1  16
TORSDOF 4
ENDMDL
MODEL 5
REMARK minimizedAffinity -4.72886038
REMARK minimizedRMSD -1
REMARK  Name = /home/tchapet/Post-Doc/ARTICLES-DOSSIERS-DES-ARTICLES-EN-REDACTION/NOUVELS-AXES-DE-RECHERCHE-A-REGARDER-URGEMMENT/ARTICLES-EN-REDACTIONS/ARTICLE_MVOTO/Paper2_Sensors_ActuatorsB/docking_rerun/ligands/17851.pdb
REMARK  7 active torsions:
REMARK  status: ('A' for Active; 'I' for Inactive)
REMARK    1  A    between atoms: C1_1  and  C2_2
REMARK    2  A    between atoms: C2_2  and  N1_3
REMARK    3  A    between atoms: N1_3  and  C3_4
REMARK    4  A    between atoms: N3_7  and  N4_8
REMARK    5  A    between atoms: N8_13  and  C6_14
REMARK    6  A    between atoms: C6_14  and  C7_15
REMARK    7  A    between atoms: C6_14  and  C8_16
REMARK                            x       y       z     vdW  Elec       q    Type
REMARK                         _______ _______ _______ _____ _____    ______ ____
ROOT
ATOM      1  C3  UNL     1     -16.789  35.160  16.335  0.00  0.00    +0.241 A 
ATOM      2  N2  UNL     1     -16.309  34.182  17.147  0.00  0.00    -0.178 NA
ATOM      3  C4  UNL     1     -16.810  34.027  18.400  0.00  0.00    +0.252 A 
ATOM      4  N3  UNL     1     -16.309  33.001  19.257  0.00  0.00    -0.126 N 
ATOM      5  N6  UNL     1     -17.794  34.853  18.837  0.00  0.00    -0.179 NA
ATOM      6  C5  UNL     1     -18.280  35.833  18.031  0.00  0.00    +0.221 A 
ATOM      7  N7  UNL     1     -17.773  35.981  16.780  0.00  0.00    -0.180 NA
ATOM      8  N8  UNL     1     -19.322  36.715  18.480  0.00  0.00    -0.311 N 
ATOM      9  H6  UNL     1     -16.702  32.889  20.219  0.00  0.00    +0.193 HD
ATOM     10  H7  UNL     1     -19.651  37.448  17.813  0.00  0.00    +0.149 HD
ENDROOT
BRANCH   8  11
ATOM     11  C6  UNL     1     -19.961  36.670  19.802  0.00  0.00    +0.067 C 
ATOM     12  C7  UNL     1     -20.028  38.063  20.437  0.00  0.00    +0.027 C 
ATOM     13  C8  UNL     1     -21.341  36.007  19.734  0.00  0.00    +0.027 C 
ENDBRANCH   8  11
BRANCH   4  14
ATOM     14  N4  UNL     1     -15.326  32.164  18.841  0.00  0.00    -0.126 NA
ATOM     15  N5  UNL     1     -14.514  31.473  18.496  0.00  0.00    -0.017 NA
ENDBRANCH   4  14
BRANCH   1  16
ATOM     16  N1  UNL     1     -16.269  35.332  15.016  0.00  0.00    -0.216 NA
BRANCH  16  18
ATOM     17  C1  UNL     1     -17.668  33.649  13.947  0.00  0.00    +0.026 C 
ATOM     18  C2  UNL     1     -17.038  35.027  13.816  0.00  0.00    +0.128 C 
ENDBRANCH  16  18
ENDBRANCH   1  16
TORSDOF 4
ENDMDL
MODEL 6
REMARK minimizedAffinity -4.70548677
REMARK minimizedRMSD -1
REMARK  Name = /home/tchapet/Post-Doc/ARTICLES-DOSSIERS-DES-ARTICLES-EN-REDACTION/NOUVELS-AXES-DE-RECHERCHE-A-REGARDER-URGEMMENT/ARTICLES-EN-REDACTIONS/ARTICLE_MVOTO/Paper2_Sensors_ActuatorsB/docking_rerun/ligands/17851.pdb
REMARK  7 active torsions:
REMARK  status: ('A' for Active; 'I' for Inactive)
REMARK    1  A    between atoms: C1_1  and  C2_2
REMARK    2  A    between atoms: C2_2  and  N1_3
REMARK    3  A    between atoms: N1_3  and  C3_4
REMARK    4  A    between atoms: N3_7  and  N4_8
REMARK    5  A    between atoms: N8_13  and  C6_14
REMARK    6  A    between atoms: C6_14  and  C7_15
REMARK    7  A    between atoms: C6_14  and  C8_16
REMARK                            x       y       z     vdW  Elec       q    Type
REMARK                         _______ _______ _______ _____ _____    ______ ____
ROOT
ATOM      1  C3  UNL     1     -16.450   3.136   6.422  0.00  0.00    +0.241 A 
ATOM      2  N2  UNL     1     -17.643   3.611   5.980  0.00  0.00    -0.178 NA
ATOM      3  C4  UNL     1     -18.588   4.017   6.868  0.00  0.00    +0.252 A 
ATOM      4  N3  UNL     1     -19.844   4.518   6.408  0.00  0.00    -0.126 N 
ATOM      5  N6  UNL     1     -18.334   3.948   8.198  0.00  0.00    -0.179 NA
ATOM      6  C5  UNL     1     -17.143   3.474   8.649  0.00  0.00    +0.221 A 
ATOM      7  N7  UNL     1     -16.205   3.069   7.755  0.00  0.00    -0.180 NA
ATOM      8  N8  UNL     1     -16.860   3.394  10.055  0.00  0.00    -0.311 N 
ATOM      9  H6  UNL     1     -20.564   4.829   7.098  0.00  0.00    +0.193 HD
ATOM     10  H7  UNL     1     -15.926   3.020  10.337  0.00  0.00    +0.149 HD
ENDROOT
BRANCH   8  11
ATOM     11  C6  UNL     1     -17.778   3.795  11.130  0.00  0.00    +0.067 C 
ATOM     12  C7  UNL     1     -18.625   2.612  11.611  0.00  0.00    +0.027 C 
ATOM     13  C8  UNL     1     -17.027   4.466  12.286  0.00  0.00    +0.027 C 
ENDBRANCH   8  11
BRANCH   4  14
ATOM     14  N4  UNL     1     -20.119   4.596   5.082  0.00  0.00    -0.126 NA
ATOM     15  N5  UNL     1     -20.346   4.662   3.986  0.00  0.00    -0.017 NA
ENDBRANCH   4  14
BRANCH   1  16
ATOM     16  N1  UNL     1     -15.449   2.706   5.499  0.00  0.00    -0.216 NA
BRANCH  16  18
ATOM     17  C1  UNL     1     -13.113   2.019   5.581  0.00  0.00    +0.026 C 
ATOM     18  C2  UNL     1     -14.559   1.583   5.764  0.00  0.00    +0.128 C 
ENDBRANCH  16  18
ENDBRANCH   1  16
TORSDOF 4
ENDMDL
MODEL 7
REMARK minimizedAffinity -4.6993041
REMARK minimizedRMSD -1
REMARK  Name = /home/tchapet/Post-Doc/ARTICLES-DOSSIERS-DES-ARTICLES-EN-REDACTION/NOUVELS-AXES-DE-RECHERCHE-A-REGARDER-URGEMMENT/ARTICLES-EN-REDACTIONS/ARTICLE_MVOTO/Paper2_Sensors_ActuatorsB/docking_rerun/ligands/17851.pdb
REMARK  7 active torsions:
REMARK  status: ('A' for Active; 'I' for Inactive)
REMARK    1  A    between atoms: C1_1  and  C2_2
REMARK    2  A    between atoms: C2_2  and  N1_3
REMARK    3  A    between atoms: N1_3  and  C3_4
REMARK    4  A    between atoms: N3_7  and  N4_8
REMARK    5  A    between atoms: N8_13  and  C6_14
REMARK    6  A    between atoms: C6_14  and  C7_15
REMARK    7  A    between atoms: C6_14  and  C8_16
REMARK                            x       y       z     vdW  Elec       q    Type
REMARK                         _______ _______ _______ _____ _____    ______ ____
ROOT
ATOM      1  C3  UNL     1      -6.102  35.319  23.900  0.00  0.00    +0.241 A 
ATOM      2  N2  UNL     1      -7.301  35.696  23.387  0.00  0.00    -0.178 NA
ATOM      3  C4  UNL     1      -8.353  35.935  24.212  0.00  0.00    +0.252 A 
ATOM      4  N3  UNL     1      -9.617  36.332  23.677  0.00  0.00    -0.126 N 
ATOM      5  N6  UNL     1      -8.201  35.796  25.552  0.00  0.00    -0.179 NA
ATOM      6  C5  UNL     1      -7.004  35.419  26.075  0.00  0.00    +0.221 A 
ATOM      7  N7  UNL     1      -5.958  35.182  25.243  0.00  0.00    -0.180 NA
ATOM      8  N8  UNL     1      -6.827  35.268  27.493  0.00  0.00    -0.311 N 
ATOM      9  H6  UNL     1     -10.419  36.514  24.320  0.00  0.00    +0.193 HD
ATOM     10  H7  UNL     1      -5.883  34.975  27.831  0.00  0.00    +0.149 HD
ENDROOT
BRANCH   8  11
ATOM     11  C6  UNL     1      -7.867  35.490  28.507  0.00  0.00    +0.067 C 
ATOM     12  C7  UNL     1      -8.315  34.171  29.146  0.00  0.00    +0.027 C 
ATOM     13  C8  UNL     1      -7.414  36.509  29.558  0.00  0.00    +0.027 C 
ENDBRANCH   8  11
BRANCH   4  14
ATOM     14  N4  UNL     1      -9.791  36.477  22.339  0.00  0.00    -0.126 NA
ATOM     15  N5  UNL     1      -9.935  36.597  21.234  0.00  0.00    -0.017 NA
ENDBRANCH   4  14
BRANCH   1  16
ATOM     16  N1  UNL     1      -4.989  35.064  23.042  0.00  0.00    -0.216 NA
BRANCH  16  18
ATOM     17  C1  UNL     1      -3.660  33.033  23.254  0.00  0.00    +0.026 C 
ATOM     18  C2  UNL     1      -3.723  34.528  23.527  0.00  0.00    +0.128 C 
ENDBRANCH  16  18
ENDBRANCH   1  16
TORSDOF 4
ENDMDL
MODEL 8
REMARK minimizedAffinity -4.69818735
REMARK minimizedRMSD -1
REMARK  Name = /home/tchapet/Post-Doc/ARTICLES-DOSSIERS-DES-ARTICLES-EN-REDACTION/NOUVELS-AXES-DE-RECHERCHE-A-REGARDER-URGEMMENT/ARTICLES-EN-REDACTIONS/ARTICLE_MVOTO/Paper2_Sensors_ActuatorsB/docking_rerun/ligands/17851.pdb
REMARK  7 active torsions:
REMARK  status: ('A' for Active; 'I' for Inactive)
REMARK    1  A    between atoms: C1_1  and  C2_2
REMARK    2  A    between atoms: C2_2  and  N1_3
REMARK    3  A    between atoms: N1_3  and  C3_4
REMARK    4  A    between atoms: N3_7  and  N4_8
REMARK    5  A    between atoms: N8_13  and  C6_14
REMARK    6  A    between atoms: C6_14  and  C7_15
REMARK    7  A    between atoms: C6_14  and  C8_16
REMARK                            x       y       z     vdW  Elec       q    Type
REMARK                         _______ _______ _______ _____ _____    ______ ____
ROOT
ATOM      1  C3  UNL     1     -16.121  23.592  43.404  0.00  0.00    +0.241 A 
ATOM      2  N2  UNL     1     -14.873  23.201  43.772  0.00  0.00    -0.178 NA
ATOM      3  C4  UNL     1     -14.193  23.893  44.722  0.00  0.00    +0.252 A 
ATOM      4  N3  UNL     1     -12.881  23.486  45.113  0.00  0.00    -0.126 N 
ATOM      5  N6  UNL     1     -14.766  24.976  45.303  0.00  0.00    -0.179 NA
ATOM      6  C5  UNL     1     -16.014  25.374  44.941  0.00  0.00    +0.221 A 
ATOM      7  N7  UNL     1     -16.686  24.677  43.990  0.00  0.00    -0.180 NA
ATOM      8  N8  UNL     1     -16.633  26.520  45.548  0.00  0.00    -0.311 N 
ATOM      9  H6  UNL     1     -12.366  24.024  45.845  0.00  0.00    +0.193 HD
ATOM     10  H7  UNL     1     -17.593  26.774  45.226  0.00  0.00    +0.149 HD
ENDROOT
BRANCH   8  11
ATOM     11  C6  UNL     1     -16.025  27.364  46.585  0.00  0.00    +0.067 C 
ATOM     12  C7  UNL     1     -16.402  28.838  46.398  0.00  0.00    +0.027 C 
ATOM     13  C8  UNL     1     -16.371  26.860  47.991  0.00  0.00    +0.027 C 
ENDBRANCH   8  11
BRANCH   4  14
ATOM     14  N4  UNL     1     -12.289  22.405  44.545  0.00  0.00    -0.126 NA
ATOM     15  N5  UNL     1     -11.801  21.513  44.075  0.00  0.00    -0.017 NA
ENDBRANCH   4  14
BRANCH   1  16
ATOM     16  N1  UNL     1     -16.846  22.872  42.406  0.00  0.00    -0.216 NA
BRANCH  16  18
ATOM     17  C1  UNL     1     -18.203  23.183  40.407  0.00  0.00    +0.026 C 
ATOM     18  C2  UNL     1     -18.155  23.290  41.923  0.00  0.00    +0.128 C 
ENDBRANCH  16  18
ENDBRANCH   1  16
TORSDOF 4
ENDMDL
MODEL 9
REMARK minimizedAffinity -4.69535446
REMARK minimizedRMSD -1
REMARK  Name = /home/tchapet/Post-Doc/ARTICLES-DOSSIERS-DES-ARTICLES-EN-REDACTION/NOUVELS-AXES-DE-RECHERCHE-A-REGARDER-URGEMMENT/ARTICLES-EN-REDACTIONS/ARTICLE_MVOTO/Paper2_Sensors_ActuatorsB/docking_rerun/ligands/17851.pdb
REMARK  7 active torsions:
REMARK  status: ('A' for Active; 'I' for Inactive)
REMARK    1  A    between atoms: C1_1  and  C2_2
REMARK    2  A    between atoms: C2_2  and  N1_3
REMARK    3  A    between atoms: N1_3  and  C3_4
REMARK    4  A    between atoms: N3_7  and  N4_8
REMARK    5  A    between atoms: N8_13  and  C6_14
REMARK    6  A    between atoms: C6_14  and  C7_15
REMARK    7  A    between atoms: C6_14  and  C8_16
REMARK                            x       y       z     vdW  Elec       q    Type
REMARK                         _______ _______ _______ _____ _____    ______ ____
ROOT
ATOM      1  C3  UNL     1     -13.966  21.124   7.761  0.00  0.00    +0.241 A 
ATOM      2  N2  UNL     1     -13.389  21.323   8.975  0.00  0.00    -0.178 NA
ATOM      3  C4  UNL     1     -13.645  22.458   9.675  0.00  0.00    +0.252 A 
ATOM      4  N3  UNL     1     -13.040  22.673  10.951  0.00  0.00    -0.126 N 
ATOM      5  N6  UNL     1     -14.480  23.393   9.157  0.00  0.00    -0.179 NA
ATOM      6  C5  UNL     1     -15.062  23.201   7.944  0.00  0.00    +0.221 A 
ATOM      7  N7  UNL     1     -14.801  22.064   7.251  0.00  0.00    -0.180 NA
ATOM      8  N8  UNL     1     -15.949  24.183   7.383  0.00  0.00    -0.311 N 
ATOM      9  H6  UNL     1     -13.244  23.549  11.482  0.00  0.00    +0.193 HD
ATOM     10  H7  UNL     1     -16.364  23.976   6.447  0.00  0.00    +0.149 HD
ENDROOT
BRANCH   8  11
ATOM     11  C6  UNL     1     -16.321  25.454   8.019  0.00  0.00    +0.067 C 
ATOM     12  C7  UNL     1     -15.358  26.579   7.624  0.00  0.00    +0.027 C 
ATOM     13  C8  UNL     1     -17.780  25.821   7.724  0.00  0.00    +0.027 C 
ENDBRANCH   8  11
BRANCH   4  14
ATOM     14  N4  UNL     1     -12.202  21.751  11.488  0.00  0.00    -0.126 NA
ATOM     15  N5  UNL     1     -11.509  20.989  11.931  0.00  0.00    -0.017 NA
ENDBRANCH   4  14
BRANCH   1  16
ATOM     16  N1  UNL     1     -13.704  19.934   7.016  0.00  0.00    -0.216 NA
BRANCH  16  18
ATOM     17  C1  UNL     1     -13.750  19.653   4.597  0.00  0.00    +0.026 C 
ATOM     18  C2  UNL     1     -12.879  19.919   5.815  0.00  0.00    +0.128 C 
ENDBRANCH  16  18
ENDBRANCH   1  16
TORSDOF 4
ENDMDL
