MODEL 1
REMARK minimizedAffinity -6.50824118
REMARK minimizedRMSD -1
REMARK  Name = /home/tchapet/Post-Doc/ARTICLES-DOSSIERS-DES-ARTICLES-EN-REDACTION/NOUVELS-AXES-DE-RECHERCHE-A-REGARDER-URGEMMENT/ARTICLES-EN-REDACTIONS/ARTICLE_MVOTO/Paper2_JCIM/docking_rerun/ligands/18506.pdb
REMARK  6 active torsions:
REMARK  status: ('A' for Active; 'I' for Inactive)
REMARK    1  A    between atoms: C1_1  and  C2_2
REMARK    2  A    between atoms: C2_2  and  C3_3
REMARK    3  A    between atoms: C3_3  and  C4_4
REMARK    4  A    between atoms: C4_4  and  N1_5
REMARK    5  A    between atoms: C9_12  and  N2_13
REMARK    6  A    between atoms: C12_16  and  N3_17
REMARK                            x       y       z     vdW  Elec       q    Type
REMARK                         _______ _______ _______ _____ _____    ______ ____
ROOT
ATOM      1  N1  UNL     1       6.608  12.732  17.483  0.00  0.00    -0.275 N 
ATOM      2  C5  UNL     1       5.751  12.612  18.521  0.00  0.00    +0.264 A 
ATOM      3  O1  UNL     1       5.007  11.610  18.700  0.00  0.00    -0.267 OA
ATOM      4  C6  UNL     1       5.840  13.719  19.356  0.00  0.00    +0.075 A 
ATOM      5  C7  UNL     1       6.797  14.538  18.814  0.00  0.00    +0.075 A 
ATOM      6  C8  UNL     1       7.257  13.902  17.669  0.00  0.00    +0.264 A 
ATOM      7  O2  UNL     1       8.169  14.322  16.907  0.00  0.00    -0.267 OA
ATOM      8  C9  UNL     1       7.212  15.713  19.446  0.00  0.00    +0.050 A 
ATOM      9  C10 UNL     1       6.559  16.096  20.664  0.00  0.00    +0.056 A 
ATOM     10  C11 UNL     1       5.553  15.233  21.234  0.00  0.00    +0.056 A 
ATOM     11  C12 UNL     1       5.219  14.004  20.575  0.00  0.00    +0.050 A 
ATOM     12  C13 UNL     1       4.882  15.646  22.418  0.00  0.00    +0.196 A 
ATOM     13  O3  UNL     1       3.934  14.960  22.891  0.00  0.00    -0.287 OA
ATOM     14  C14 UNL     1       5.236  16.841  23.070  0.00  0.00    +0.033 A 
ATOM     15  C15 UNL     1       6.220  17.685  22.512  0.00  0.00    +0.033 A 
ATOM     16  C16 UNL     1       6.848  17.333  21.304  0.00  0.00    +0.196 A 
ATOM     17  O4  UNL     1       7.655  18.152  20.783  0.00  0.00    -0.287 OA
ATOM     18  C17 UNL     1       6.547  18.892  23.170  0.00  0.00    +0.012 A 
ATOM     19  C18 UNL     1       5.912  19.249  24.360  0.00  0.00    +0.001 A 
ATOM     20  C19 UNL     1       4.941  18.416  24.910  0.00  0.00    +0.001 A 
ATOM     21  C20 UNL     1       4.601  17.222  24.273  0.00  0.00    +0.012 A 
ENDROOT
BRANCH   8  22
ATOM     22  N2  UNL     1       8.301  16.460  18.887  0.00  0.00    -0.357 N 
ATOM     23  H10 UNL     1       8.401  16.577  17.856  0.00  0.00    +0.142 HD
ATOM     24  H11 UNL     1       9.098  16.771  19.487  0.00  0.00    +0.142 HD
ENDBRANCH   8  22
BRANCH  11  25
ATOM     25  N3  UNL     1       4.318  13.044  21.143  0.00  0.00    -0.357 N 
ATOM     26  H12 UNL     1       3.655  12.507  20.543  0.00  0.00    +0.142 HD
ATOM     27  H13 UNL     1       4.411  12.751  22.142  0.00  0.00    +0.142 HD
ENDBRANCH  11  25
BRANCH   1  28
ATOM     28  C4  UNL     1       6.851  11.752  16.420  0.00  0.00    +0.128 C 
BRANCH  28  29
ATOM     29  C3  UNL     1       5.845  11.914  15.272  0.00  0.00    +0.021 C 
BRANCH  29  31
ATOM     30  C1  UNL     1       5.613  14.228  14.293  0.00  0.00    +0.004 C 
ATOM     31  C2  UNL     1       6.342  12.892  14.199  0.00  0.00    -0.002 C 
ENDBRANCH  29  31
ENDBRANCH  28  29
ENDBRANCH   1  28
TORSDOF 5
ENDMDL
MODEL 2
REMARK minimizedAffinity -6.23536682
REMARK minimizedRMSD -1
REMARK  Name = /home/tchapet/Post-Doc/ARTICLES-DOSSIERS-DES-ARTICLES-EN-REDACTION/NOUVELS-AXES-DE-RECHERCHE-A-REGARDER-URGEMMENT/ARTICLES-EN-REDACTIONS/ARTICLE_MVOTO/Paper2_JCIM/docking_rerun/ligands/18506.pdb
REMARK  6 active torsions:
REMARK  status: ('A' for Active; 'I' for Inactive)
REMARK    1  A    between atoms: C1_1  and  C2_2
REMARK    2  A    between atoms: C2_2  and  C3_3
REMARK    3  A    between atoms: C3_3  and  C4_4
REMARK    4  A    between atoms: C4_4  and  N1_5
REMARK    5  A    between atoms: C9_12  and  N2_13
REMARK    6  A    between atoms: C12_16  and  N3_17
REMARK                            x       y       z     vdW  Elec       q    Type
REMARK                         _______ _______ _______ _____ _____    ______ ____
ROOT
ATOM      1  N1  UNL     1       6.603  12.527  17.229  0.00  0.00    -0.275 N 
ATOM      2  C5  UNL     1       7.173  13.748  17.327  0.00  0.00    +0.264 A 
ATOM      3  O1  UNL     1       7.908  14.249  16.434  0.00  0.00    -0.267 OA
ATOM      4  C6  UNL     1       6.808  14.361  18.519  0.00  0.00    +0.075 A 
ATOM      5  C7  UNL     1       5.972  13.488  19.165  0.00  0.00    +0.075 A 
ATOM      6  C8  UNL     1       5.857  12.374  18.345  0.00  0.00    +0.264 A 
ATOM      7  O2  UNL     1       5.144  11.359  18.573  0.00  0.00    -0.267 OA
ATOM      8  C9  UNL     1       5.339  13.817  20.366  0.00  0.00    +0.050 A 
ATOM      9  C10 UNL     1       5.637  15.086  20.965  0.00  0.00    +0.056 A 
ATOM     10  C11 UNL     1       6.516  16.005  20.284  0.00  0.00    +0.056 A 
ATOM     11  C12 UNL     1       7.081  15.638  19.018  0.00  0.00    +0.050 A 
ATOM     12  C13 UNL     1       6.838  17.241  20.910  0.00  0.00    +0.196 A 
ATOM     13  O3  UNL     1       7.675  18.027  20.385  0.00  0.00    -0.287 OA
ATOM     14  C14 UNL     1       6.258  17.602  22.139  0.00  0.00    +0.033 A 
ATOM     15  C15 UNL     1       5.397  16.703  22.805  0.00  0.00    +0.033 A 
ATOM     16  C16 UNL     1       5.119  15.445  22.240  0.00  0.00    +0.196 A 
ATOM     17  O4  UNL     1       4.422  14.628  22.903  0.00  0.00    -0.287 OA
ATOM     18  C17 UNL     1       4.841  17.074  24.050  0.00  0.00    +0.012 A 
ATOM     19  C18 UNL     1       5.130  18.316  24.616  0.00  0.00    +0.001 A 
ATOM     20  C19 UNL     1       5.980  19.202  23.959  0.00  0.00    +0.001 A 
ATOM     21  C20 UNL     1       6.542  18.852  22.732  0.00  0.00    +0.012 A 
ENDROOT
BRANCH   8  22
ATOM     22  N2  UNL     1       4.383  12.906  20.926  0.00  0.00    -0.357 N 
ATOM     23  H10 UNL     1       4.541  11.877  20.898  0.00  0.00    +0.142 HD
ATOM     24  H11 UNL     1       3.443  13.242  21.233  0.00  0.00    +0.142 HD
ENDBRANCH   8  22
BRANCH  11  25
ATOM     25  N3  UNL     1       7.865  16.544  18.231  0.00  0.00    -0.357 N 
ATOM     26  H12 UNL     1       8.690  16.210  17.688  0.00  0.00    +0.142 HD
ATOM     27  H13 UNL     1       7.540  17.523  18.062  0.00  0.00    +0.142 HD
ENDBRANCH  11  25
BRANCH   1  28
ATOM     28  C4  UNL     1       6.697  11.595  16.101  0.00  0.00    +0.128 C 
BRANCH  28  29
ATOM     29  C3  UNL     1       5.733  11.986  14.973  0.00  0.00    +0.021 C 
BRANCH  29  31
ATOM     30  C1  UNL     1       3.298  12.179  15.607  0.00  0.00    +0.004 C 
ATOM     31  C2  UNL     1       4.389  11.253  15.079  0.00  0.00    -0.002 C 
ENDBRANCH  29  31
ENDBRANCH  28  29
ENDBRANCH   1  28
TORSDOF 5
ENDMDL
MODEL 3
REMARK minimizedAffinity -5.97206926
REMARK minimizedRMSD -1
REMARK  Name = /home/tchapet/Post-Doc/ARTICLES-DOSSIERS-DES-ARTICLES-EN-REDACTION/NOUVELS-AXES-DE-RECHERCHE-A-REGARDER-URGEMMENT/ARTICLES-EN-REDACTIONS/ARTICLE_MVOTO/Paper2_JCIM/docking_rerun/ligands/18506.pdb
REMARK  6 active torsions:
REMARK  status: ('A' for Active; 'I' for Inactive)
REMARK    1  A    between atoms: C1_1  and  C2_2
REMARK    2  A    between atoms: C2_2  and  C3_3
REMARK    3  A    between atoms: C3_3  and  C4_4
REMARK    4  A    between atoms: C4_4  and  N1_5
REMARK    5  A    between atoms: C9_12  and  N2_13
REMARK    6  A    between atoms: C12_16  and  N3_17
REMARK                            x       y       z     vdW  Elec       q    Type
REMARK                         _______ _______ _______ _____ _____    ______ ____
ROOT
ATOM      1  N1  UNL     1       6.185  -5.921  37.242  0.00  0.00    -0.275 N 
ATOM      2  C5  UNL     1       6.311  -5.082  36.189  0.00  0.00    +0.264 A 
ATOM      3  O1  UNL     1       6.758  -3.908  36.283  0.00  0.00    -0.267 OA
ATOM      4  C6  UNL     1       5.913  -5.711  35.016  0.00  0.00    +0.075 A 
ATOM      5  C7  UNL     1       5.544  -6.985  35.364  0.00  0.00    +0.075 A 
ATOM      6  C8  UNL     1       5.730  -7.088  36.736  0.00  0.00    +0.264 A 
ATOM      7  O2  UNL     1       5.534  -8.120  37.432  0.00  0.00    -0.267 OA
ATOM      8  C9  UNL     1       5.167  -7.935  34.411  0.00  0.00    +0.050 A 
ATOM      9  C10 UNL     1       5.104  -7.530  33.037  0.00  0.00    +0.056 A 
ATOM     10  C11 UNL     1       5.494  -6.189  32.671  0.00  0.00    +0.056 A 
ATOM     11  C12 UNL     1       5.938  -5.280  33.687  0.00  0.00    +0.050 A 
ATOM     12  C13 UNL     1       5.384  -5.787  31.312  0.00  0.00    +0.196 A 
ATOM     13  O3  UNL     1       5.629  -4.596  30.972  0.00  0.00    -0.287 OA
ATOM     14  C14 UNL     1       4.972  -6.695  30.320  0.00  0.00    +0.033 A 
ATOM     15  C15 UNL     1       4.591  -8.006  30.677  0.00  0.00    +0.033 A 
ATOM     16  C16 UNL     1       4.623  -8.407  32.026  0.00  0.00    +0.196 A 
ATOM     17  O4  UNL     1       4.188  -9.553  32.324  0.00  0.00    -0.287 OA
ATOM     18  C17 UNL     1       4.159  -8.898  29.670  0.00  0.00    +0.012 A 
ATOM     19  C18 UNL     1       4.112  -8.495  28.335  0.00  0.00    +0.001 A 
ATOM     20  C19 UNL     1       4.487  -7.201  27.983  0.00  0.00    +0.001 A 
ATOM     21  C20 UNL     1       4.912  -6.305  28.964  0.00  0.00    +0.012 A 
ENDROOT
BRANCH   8  22
ATOM     22  N2  UNL     1       4.911  -9.282  34.830  0.00  0.00    -0.357 N 
ATOM     23  H10 UNL     1       4.411  -9.482  35.722  0.00  0.00    +0.142 HD
ATOM     24  H11 UNL     1       5.350 -10.088  34.332  0.00  0.00    +0.142 HD
ENDBRANCH   8  22
BRANCH  11  25
ATOM     25  N3  UNL     1       6.451  -3.976  33.384  0.00  0.00    -0.357 N 
ATOM     26  H12 UNL     1       6.246  -3.160  34.000  0.00  0.00    +0.142 HD
ATOM     27  H13 UNL     1       7.164  -3.845  32.631  0.00  0.00    +0.142 HD
ENDBRANCH  11  25
BRANCH   1  28
ATOM     28  C4  UNL     1       6.553  -5.652  38.635  0.00  0.00    +0.128 C 
BRANCH  28  29
ATOM     29  C3  UNL     1       5.409  -4.963  39.391  0.00  0.00    +0.021 C 
BRANCH  29  31
ATOM     30  C1  UNL     1       5.939  -5.026  41.858  0.00  0.00    +0.004 C 
ATOM     31  C2  UNL     1       5.110  -5.641  40.734  0.00  0.00    -0.002 C 
ENDBRANCH  29  31
ENDBRANCH  28  29
ENDBRANCH   1  28
TORSDOF 5
ENDMDL
MODEL 4
REMARK minimizedAffinity -5.96013451
REMARK minimizedRMSD -1
REMARK  Name = /home/tchapet/Post-Doc/ARTICLES-DOSSIERS-DES-ARTICLES-EN-REDACTION/NOUVELS-AXES-DE-RECHERCHE-A-REGARDER-URGEMMENT/ARTICLES-EN-REDACTIONS/ARTICLE_MVOTO/Paper2_JCIM/docking_rerun/ligands/18506.pdb
REMARK  6 active torsions:
REMARK  status: ('A' for Active; 'I' for Inactive)
REMARK    1  A    between atoms: C1_1  and  C2_2
REMARK    2  A    between atoms: C2_2  and  C3_3
REMARK    3  A    between atoms: C3_3  and  C4_4
REMARK    4  A    between atoms: C4_4  and  N1_5
REMARK    5  A    between atoms: C9_12  and  N2_13
REMARK    6  A    between atoms: C12_16  and  N3_17
REMARK                            x       y       z     vdW  Elec       q    Type
REMARK                         _______ _______ _______ _____ _____    ______ ____
ROOT
ATOM      1  N1  UNL     1      36.441  14.592  27.238  0.00  0.00    -0.275 N 
ATOM      2  C5  UNL     1      35.545  13.978  28.042  0.00  0.00    +0.264 A 
ATOM      3  O1  UNL     1      34.856  14.581  28.908  0.00  0.00    -0.267 OA
ATOM      4  C6  UNL     1      35.481  12.620  27.752  0.00  0.00    +0.075 A 
ATOM      5  C7  UNL     1      36.359  12.401  26.722  0.00  0.00    +0.075 A 
ATOM      6  C8  UNL     1      36.928  13.631  26.422  0.00  0.00    +0.264 A 
ATOM      7  O2  UNL     1      37.764  13.854  25.505  0.00  0.00    -0.267 OA
ATOM      8  C9  UNL     1      36.490  11.151  26.112  0.00  0.00    +0.050 A 
ATOM      9  C10 UNL     1      35.725  10.057  26.634  0.00  0.00    +0.056 A 
ATOM     10  C11 UNL     1      34.799  10.289  27.716  0.00  0.00    +0.056 A 
ATOM     11  C12 UNL     1      34.658  11.610  28.256  0.00  0.00    +0.050 A 
ATOM     12  C13 UNL     1      34.080   9.186  28.255  0.00  0.00    +0.196 A 
ATOM     13  O3  UNL     1      33.332   9.337  29.260  0.00  0.00    -0.287 OA
ATOM     14  C14 UNL     1      34.207   7.900  27.700  0.00  0.00    +0.033 A 
ATOM     15  C15 UNL     1      35.112   7.674  26.641  0.00  0.00    +0.033 A 
ATOM     16  C16 UNL     1      35.888   8.734  26.138  0.00  0.00    +0.196 A 
ATOM     17  O4  UNL     1      36.754   8.481  25.256  0.00  0.00    -0.287 OA
ATOM     18  C17 UNL     1      35.242   6.370  26.112  0.00  0.00    +0.012 A 
ATOM     19  C18 UNL     1      34.484   5.316  26.621  0.00  0.00    +0.001 A 
ATOM     20  C19 UNL     1      33.591   5.539  27.666  0.00  0.00    +0.001 A 
ATOM     21  C20 UNL     1      33.452   6.818  28.206  0.00  0.00    +0.012 A 
ENDROOT
BRANCH   8  22
ATOM     22  N2  UNL     1      37.338  11.020  24.962  0.00  0.00    -0.357 N 
ATOM     23  H10 UNL     1      38.250  11.521  24.906  0.00  0.00    +0.142 HD
ATOM     24  H11 UNL     1      36.993  10.547  24.097  0.00  0.00    +0.142 HD
ENDBRANCH   8  22
BRANCH  11  25
ATOM     25  N3  UNL     1      33.676  11.936  29.249  0.00  0.00    -0.357 N 
ATOM     26  H12 UNL     1      33.888  12.613  30.013  0.00  0.00    +0.142 HD
ATOM     27  H13 UNL     1      32.685  11.625  29.141  0.00  0.00    +0.142 HD
ENDBRANCH  11  25
BRANCH   1  28
ATOM     28  C4  UNL     1      36.754  16.023  27.195  0.00  0.00    +0.128 C 
BRANCH  28  29
ATOM     29  C3  UNL     1      37.914  16.368  28.139  0.00  0.00    +0.021 C 
BRANCH  29  31
ATOM     30  C1  UNL     1      40.121  15.194  27.790  0.00  0.00    +0.004 C 
ATOM     31  C2  UNL     1      39.265  16.399  27.411  0.00  0.00    -0.002 C 
ENDBRANCH  29  31
ENDBRANCH  28  29
ENDBRANCH   1  28
TORSDOF 5
ENDMDL
MODEL 5
REMARK minimizedAffinity -5.9010334
REMARK minimizedRMSD -1
REMARK  Name = /home/tchapet/Post-Doc/ARTICLES-DOSSIERS-DES-ARTICLES-EN-REDACTION/NOUVELS-AXES-DE-RECHERCHE-A-REGARDER-URGEMMENT/ARTICLES-EN-REDACTIONS/ARTICLE_MVOTO/Paper2_JCIM/docking_rerun/ligands/18506.pdb
REMARK  6 active torsions:
REMARK  status: ('A' for Active; 'I' for Inactive)
REMARK    1  A    between atoms: C1_1  and  C2_2
REMARK    2  A    between atoms: C2_2  and  C3_3
REMARK    3  A    between atoms: C3_3  and  C4_4
REMARK    4  A    between atoms: C4_4  and  N1_5
REMARK    5  A    between atoms: C9_12  and  N2_13
REMARK    6  A    between atoms: C12_16  and  N3_17
REMARK                            x       y       z     vdW  Elec       q    Type
REMARK                         _______ _______ _______ _____ _____    ______ ____
ROOT
ATOM      1  N1  UNL     1       7.306  18.841  22.999  0.00  0.00    -0.275 N 
ATOM      2  C5  UNL     1       7.939  18.646  21.821  0.00  0.00    +0.264 A 
ATOM      3  O1  UNL     1       8.858  19.393  21.390  0.00  0.00    -0.267 OA
ATOM      4  C6  UNL     1       7.454  17.506  21.191  0.00  0.00    +0.075 A 
ATOM      5  C7  UNL     1       6.500  16.978  22.022  0.00  0.00    +0.075 A 
ATOM      6  C8  UNL     1       6.437  17.814  23.129  0.00  0.00    +0.264 A 
ATOM      7  O2  UNL     1       5.701  17.648  24.139  0.00  0.00    -0.267 OA
ATOM      8  C9  UNL     1       5.859  15.769  21.743  0.00  0.00    +0.050 A 
ATOM      9  C10 UNL     1       6.169  15.105  20.511  0.00  0.00    +0.056 A 
ATOM     10  C11 UNL     1       7.174  15.660  19.637  0.00  0.00    +0.056 A 
ATOM     11  C12 UNL     1       7.848  16.868  20.012  0.00  0.00    +0.050 A 
ATOM     12  C13 UNL     1       7.440  15.016  18.397  0.00  0.00    +0.196 A 
ATOM     13  O3  UNL     1       8.245  15.524  17.568  0.00  0.00    -0.287 OA
ATOM     14  C14 UNL     1       6.791  13.817  18.051  0.00  0.00    +0.033 A 
ATOM     15  C15 UNL     1       5.809  13.273  18.907  0.00  0.00    +0.033 A 
ATOM     16  C16 UNL     1       5.476  13.930  20.105  0.00  0.00    +0.196 A 
ATOM     17  O4  UNL     1       4.530  13.471  20.802  0.00  0.00    -0.287 OA
ATOM     18  C17 UNL     1       5.152  12.080  18.532  0.00  0.00    +0.012 A 
ATOM     19  C18 UNL     1       5.470  11.437  17.335  0.00  0.00    +0.001 A 
ATOM     20  C19 UNL     1       6.439  11.974  16.492  0.00  0.00    +0.001 A 
ATOM     21  C20 UNL     1       7.095  13.154  16.841  0.00  0.00    +0.012 A 
ENDROOT
BRANCH   8  22
ATOM     22  N2  UNL     1       4.961  15.213  22.713  0.00  0.00    -0.357 N 
ATOM     23  H10 UNL     1       4.313  15.822  23.257  0.00  0.00    +0.142 HD
ATOM     24  H11 UNL     1       5.043  14.213  23.005  0.00  0.00    +0.142 HD
ENDBRANCH   8  22
BRANCH  11  25
ATOM     25  N3  UNL     1       8.937  17.412  19.252  0.00  0.00    -0.357 N 
ATOM     26  H12 UNL     1       9.049  18.442  19.134  0.00  0.00    +0.142 HD
ATOM     27  H13 UNL     1       9.722  16.800  18.933  0.00  0.00    +0.142 HD
ENDBRANCH  11  25
BRANCH   1  28
ATOM     28  C4  UNL     1       7.570  19.897  23.979  0.00  0.00    +0.128 C 
BRANCH  28  29
ATOM     29  C3  UNL     1       8.658  19.474  24.975  0.00  0.00    +0.021 C 
BRANCH  29  31
ATOM     30  C1  UNL     1       8.847  19.828  27.467  0.00  0.00    +0.004 C 
ATOM     31  C2  UNL     1       8.080  19.124  26.353  0.00  0.00    -0.002 C 
ENDBRANCH  29  31
ENDBRANCH  28  29
ENDBRANCH   1  28
TORSDOF 5
ENDMDL
MODEL 6
REMARK minimizedAffinity -5.8972497
REMARK minimizedRMSD -1
REMARK  Name = /home/tchapet/Post-Doc/ARTICLES-DOSSIERS-DES-ARTICLES-EN-REDACTION/NOUVELS-AXES-DE-RECHERCHE-A-REGARDER-URGEMMENT/ARTICLES-EN-REDACTIONS/ARTICLE_MVOTO/Paper2_JCIM/docking_rerun/ligands/18506.pdb
REMARK  6 active torsions:
REMARK  status: ('A' for Active; 'I' for Inactive)
REMARK    1  A    between atoms: C1_1  and  C2_2
REMARK    2  A    between atoms: C2_2  and  C3_3
REMARK    3  A    between atoms: C3_3  and  C4_4
REMARK    4  A    between atoms: C4_4  and  N1_5
REMARK    5  A    between atoms: C9_12  and  N2_13
REMARK    6  A    between atoms: C12_16  and  N3_17
REMARK                            x       y       z     vdW  Elec       q    Type
REMARK                         _______ _______ _______ _____ _____    ______ ____
ROOT
ATOM      1  N1  UNL     1       6.697  18.822  23.248  0.00  0.00    -0.275 N 
ATOM      2  C5  UNL     1       5.960  17.694  23.345  0.00  0.00    +0.264 A 
ATOM      3  O1  UNL     1       5.181  17.450  24.306  0.00  0.00    -0.267 OA
ATOM      4  C6  UNL     1       6.163  16.882  22.237  0.00  0.00    +0.075 A 
ATOM      5  C7  UNL     1       7.047  17.546  21.425  0.00  0.00    +0.075 A 
ATOM      6  C8  UNL     1       7.350  18.739  22.068  0.00  0.00    +0.264 A 
ATOM      7  O2  UNL     1       8.105  19.646  21.624  0.00  0.00    -0.267 OA
ATOM      8  C9  UNL     1       7.413  17.057  20.169  0.00  0.00    +0.050 A 
ATOM      9  C10 UNL     1       6.894  15.785  19.758  0.00  0.00    +0.056 A 
ATOM     10  C11 UNL     1       5.964  15.087  20.612  0.00  0.00    +0.056 A 
ATOM     11  C12 UNL     1       5.571  15.674  21.860  0.00  0.00    +0.050 A 
ATOM     12  C13 UNL     1       5.492  13.806  20.213  0.00  0.00    +0.196 A 
ATOM     13  O3  UNL     1       4.750  13.128  20.977  0.00  0.00    -0.287 OA
ATOM     14  C14 UNL     1       5.863  13.252  18.975  0.00  0.00    +0.033 A 
ATOM     15  C15 UNL     1       6.773  13.935  18.139  0.00  0.00    +0.033 A 
ATOM     16  C16 UNL     1       7.310  15.171  18.544  0.00  0.00    +0.196 A 
ATOM     17  O4  UNL     1       8.190  15.711  17.820  0.00  0.00    -0.287 OA
ATOM     18  C17 UNL     1       7.152  13.352  16.909  0.00  0.00    +0.012 A 
ATOM     19  C18 UNL     1       6.631  12.119  16.516  0.00  0.00    +0.001 A 
ATOM     20  C19 UNL     1       5.734  11.445  17.340  0.00  0.00    +0.001 A 
ATOM     21  C20 UNL     1       5.352  12.002  18.560  0.00  0.00    +0.012 A 
ENDROOT
BRANCH   8  22
ATOM     22  N2  UNL     1       8.246  17.860  19.321  0.00  0.00    -0.357 N 
ATOM     23  H10 UNL     1       9.038  18.413  19.713  0.00  0.00    +0.142 HD
ATOM     24  H11 UNL     1       7.986  18.029  18.324  0.00  0.00    +0.142 HD
ENDBRANCH   8  22
BRANCH  11  25
ATOM     25  N3  UNL     1       4.564  15.095  22.701  0.00  0.00    -0.357 N 
ATOM     26  H12 UNL     1       4.652  15.119  23.740  0.00  0.00    +0.142 HD
ATOM     27  H13 UNL     1       3.654  14.776  22.300  0.00  0.00    +0.142 HD
ENDBRANCH  11  25
BRANCH   1  28
ATOM     28  C4  UNL     1       6.716  19.949  24.184  0.00  0.00    +0.128 C 
BRANCH  28  29
ATOM     29  C3  UNL     1       8.051  20.028  24.935  0.00  0.00    +0.021 C 
BRANCH  29  31
ATOM     30  C1  UNL     1       7.381  18.916  27.099  0.00  0.00    +0.004 C 
ATOM     31  C2  UNL     1       8.268  18.824  25.862  0.00  0.00    -0.002 C 
ENDBRANCH  29  31
ENDBRANCH  28  29
ENDBRANCH   1  28
TORSDOF 5
ENDMDL
MODEL 7
REMARK minimizedAffinity -5.8865962
REMARK minimizedRMSD -1
REMARK  Name = /home/tchapet/Post-Doc/ARTICLES-DOSSIERS-DES-ARTICLES-EN-REDACTION/NOUVELS-AXES-DE-RECHERCHE-A-REGARDER-URGEMMENT/ARTICLES-EN-REDACTIONS/ARTICLE_MVOTO/Paper2_JCIM/docking_rerun/ligands/18506.pdb
REMARK  6 active torsions:
REMARK  status: ('A' for Active; 'I' for Inactive)
REMARK    1  A    between atoms: C1_1  and  C2_2
REMARK    2  A    between atoms: C2_2  and  C3_3
REMARK    3  A    between atoms: C3_3  and  C4_4
REMARK    4  A    between atoms: C4_4  and  N1_5
REMARK    5  A    between atoms: C9_12  and  N2_13
REMARK    6  A    between atoms: C12_16  and  N3_17
REMARK                            x       y       z     vdW  Elec       q    Type
REMARK                         _______ _______ _______ _____ _____    ______ ____
ROOT
ATOM      1  N1  UNL     1       5.234  -6.273  30.481  0.00  0.00    -0.275 N 
ATOM      2  C5  UNL     1       4.940  -7.341  31.255  0.00  0.00    +0.264 A 
ATOM      3  O1  UNL     1       4.552  -8.449  30.798  0.00  0.00    -0.267 OA
ATOM      4  C6  UNL     1       5.156  -7.045  32.595  0.00  0.00    +0.075 A 
ATOM      5  C7  UNL     1       5.614  -5.753  32.638  0.00  0.00    +0.075 A 
ATOM      6  C8  UNL     1       5.660  -5.307  31.324  0.00  0.00    +0.264 A 
ATOM      7  O2  UNL     1       6.062  -4.176  30.941  0.00  0.00    -0.267 OA
ATOM      8  C9  UNL     1       6.020  -5.148  33.831  0.00  0.00    +0.050 A 
ATOM      9  C10 UNL     1       5.884  -5.892  35.049  0.00  0.00    +0.056 A 
ATOM     10  C11 UNL     1       5.403  -7.252  35.003  0.00  0.00    +0.056 A 
ATOM     11  C12 UNL     1       5.068  -7.841  33.740  0.00  0.00    +0.050 A 
ATOM     12  C13 UNL     1       5.231  -7.963  36.223  0.00  0.00    +0.196 A 
ATOM     13  O3  UNL     1       4.727  -9.120  36.226  0.00  0.00    -0.287 OA
ATOM     14  C14 UNL     1       5.588  -7.384  37.454  0.00  0.00    +0.033 A 
ATOM     15  C15 UNL     1       6.058  -6.053  37.499  0.00  0.00    +0.033 A 
ATOM     16  C16 UNL     1       6.170  -5.305  36.313  0.00  0.00    +0.196 A 
ATOM     17  O4  UNL     1       6.504  -4.091  36.396  0.00  0.00    -0.287 OA
ATOM     18  C17 UNL     1       6.391  -5.481  38.747  0.00  0.00    +0.012 A 
ATOM     19  C18 UNL     1       6.264  -6.219  39.925  0.00  0.00    +0.001 A 
ATOM     20  C19 UNL     1       5.800  -7.531  39.880  0.00  0.00    +0.001 A 
ATOM     21  C20 UNL     1       5.461  -8.111  38.658  0.00  0.00    +0.012 A 
ENDROOT
BRANCH   8  22
ATOM     22  N2  UNL     1       6.602  -3.838  33.788  0.00  0.00    -0.357 N 
ATOM     23  H10 UNL     1       6.230  -3.105  33.147  0.00  0.00    +0.142 HD
ATOM     24  H11 UNL     1       7.500  -3.637  34.282  0.00  0.00    +0.142 HD
ENDBRANCH   8  22
BRANCH  11  25
ATOM     25  N3  UNL     1       4.698  -9.220  33.606  0.00  0.00    -0.357 N 
ATOM     26  H12 UNL     1       3.962  -9.517  32.929  0.00  0.00    +0.142 HD
ATOM     27  H13 UNL     1       5.261  -9.970  34.067  0.00  0.00    +0.142 HD
ENDBRANCH  11  25
BRANCH   1  28
ATOM     28  C4  UNL     1       5.189  -6.204  29.017  0.00  0.00    +0.128 C 
BRANCH  28  29
ATOM     29  C3  UNL     1       6.598  -6.083  28.422  0.00  0.00    +0.021 C 
BRANCH  29  31
ATOM     30  C1  UNL     1       7.763  -7.836  27.028  0.00  0.00    +0.004 C 
ATOM     31  C2  UNL     1       7.351  -7.421  28.436  0.00  0.00    -0.002 C 
ENDBRANCH  29  31
ENDBRANCH  28  29
ENDBRANCH   1  28
TORSDOF 5
ENDMDL
MODEL 8
REMARK minimizedAffinity -5.88016319
REMARK minimizedRMSD -1
REMARK  Name = /home/tchapet/Post-Doc/ARTICLES-DOSSIERS-DES-ARTICLES-EN-REDACTION/NOUVELS-AXES-DE-RECHERCHE-A-REGARDER-URGEMMENT/ARTICLES-EN-REDACTIONS/ARTICLE_MVOTO/Paper2_JCIM/docking_rerun/ligands/18506.pdb
REMARK  6 active torsions:
REMARK  status: ('A' for Active; 'I' for Inactive)
REMARK    1  A    between atoms: C1_1  and  C2_2
REMARK    2  A    between atoms: C2_2  and  C3_3
REMARK    3  A    between atoms: C3_3  and  C4_4
REMARK    4  A    between atoms: C4_4  and  N1_5
REMARK    5  A    between atoms: C9_12  and  N2_13
REMARK    6  A    between atoms: C12_16  and  N3_17
REMARK                            x       y       z     vdW  Elec       q    Type
REMARK                         _______ _______ _______ _____ _____    ______ ____
ROOT
ATOM      1  N1  UNL     1       5.486  -7.524  39.677  0.00  0.00    -0.275 N 
ATOM      2  C5  UNL     1       5.929  -6.406  39.060  0.00  0.00    +0.264 A 
ATOM      3  O1  UNL     1       6.457  -5.436  39.668  0.00  0.00    -0.267 OA
ATOM      4  C6  UNL     1       5.748  -6.504  37.686  0.00  0.00    +0.075 A 
ATOM      5  C7  UNL     1       5.187  -7.733  37.455  0.00  0.00    +0.075 A 
ATOM      6  C8  UNL     1       5.045  -8.341  38.695  0.00  0.00    +0.264 A 
ATOM      7  O2  UNL     1       4.597  -9.500  38.902  0.00  0.00    -0.267 OA
ATOM      8  C9  UNL     1       4.946  -8.208  36.163  0.00  0.00    +0.050 A 
ATOM      9  C10 UNL     1       5.236  -7.343  35.057  0.00  0.00    +0.056 A 
ATOM     10  C11 UNL     1       5.828  -6.050  35.301  0.00  0.00    +0.056 A 
ATOM     11  C12 UNL     1       6.117  -5.647  36.646  0.00  0.00    +0.050 A 
ATOM     12  C13 UNL     1       6.070  -5.184  34.199  0.00  0.00    +0.196 A 
ATOM     13  O3  UNL     1       6.501  -4.012  34.385  0.00  0.00    -0.287 OA
ATOM     14  C14 UNL     1       5.807  -5.600  32.881  0.00  0.00    +0.033 A 
ATOM     15  C15 UNL     1       5.228  -6.865  32.642  0.00  0.00    +0.033 A 
ATOM     16  C16 UNL     1       4.914  -7.711  33.721  0.00  0.00    +0.196 A 
ATOM     17  O4  UNL     1       4.313  -8.795  33.482  0.00  0.00    -0.287 OA
ATOM     18  C17 UNL     1       4.951  -7.257  31.313  0.00  0.00    +0.012 A 
ATOM     19  C18 UNL     1       5.248  -6.411  30.245  0.00  0.00    +0.001 A 
ATOM     20  C19 UNL     1       5.819  -5.163  30.481  0.00  0.00    +0.001 A 
ATOM     21  C20 UNL     1       6.096  -4.756  31.786  0.00  0.00    +0.012 A 
ENDROOT
BRANCH   8  22
ATOM     22  N2  UNL     1       4.470  -9.549  35.988  0.00  0.00    -0.357 N 
ATOM     23  H10 UNL     1       3.763  -9.958  36.636  0.00  0.00    +0.142 HD
ATOM     24  H11 UNL     1       4.930 -10.194  35.307  0.00  0.00    +0.142 HD
ENDBRANCH   8  22
BRANCH  11  25
ATOM     25  N3  UNL     1       6.811  -4.430  36.955  0.00  0.00    -0.357 N 
ATOM     26  H12 UNL     1       6.552  -3.859  37.788  0.00  0.00    +0.142 HD
ATOM     27  H13 UNL     1       7.685  -4.170  36.444  0.00  0.00    +0.142 HD
ENDBRANCH  11  25
BRANCH   1  28
ATOM     28  C4  UNL     1       5.553  -7.829  41.109  0.00  0.00    +0.128 C 
BRANCH  28  29
ATOM     29  C3  UNL     1       6.961  -8.281  41.517  0.00  0.00    +0.021 C 
BRANCH  29  31
ATOM     30  C1  UNL     1       7.927 -10.209  40.205  0.00  0.00    +0.004 C 
ATOM     31  C2  UNL     1       7.126  -9.805  41.439  0.00  0.00    -0.002 C 
ENDBRANCH  29  31
ENDBRANCH  28  29
ENDBRANCH   1  28
TORSDOF 5
ENDMDL
MODEL 9
REMARK minimizedAffinity -5.87179708
REMARK minimizedRMSD -1
REMARK  Name = /home/tchapet/Post-Doc/ARTICLES-DOSSIERS-DES-ARTICLES-EN-REDACTION/NOUVELS-AXES-DE-RECHERCHE-A-REGARDER-URGEMMENT/ARTICLES-EN-REDACTIONS/ARTICLE_MVOTO/Paper2_JCIM/docking_rerun/ligands/18506.pdb
REMARK  6 active torsions:
REMARK  status: ('A' for Active; 'I' for Inactive)
REMARK    1  A    between atoms: C1_1  and  C2_2
REMARK    2  A    between atoms: C2_2  and  C3_3
REMARK    3  A    between atoms: C3_3  and  C4_4
REMARK    4  A    between atoms: C4_4  and  N1_5
REMARK    5  A    between atoms: C9_12  and  N2_13
REMARK    6  A    between atoms: C12_16  and  N3_17
REMARK                            x       y       z     vdW  Elec       q    Type
REMARK                         _______ _______ _______ _____ _____    ______ ____
ROOT
ATOM      1  N1  UNL     1       4.819  11.615  15.242  0.00  0.00    -0.275 N 
ATOM      2  C5  UNL     1       5.779  12.566  15.255  0.00  0.00    +0.264 A 
ATOM      3  O1  UNL     1       6.464  12.879  14.245  0.00  0.00    -0.267 OA
ATOM      4  C6  UNL     1       5.869  13.150  16.512  0.00  0.00    +0.075 A 
ATOM      5  C7  UNL     1       4.918  12.543  17.291  0.00  0.00    +0.075 A 
ATOM      6  C8  UNL     1       4.282  11.611  16.483  0.00  0.00    +0.264 A 
ATOM      7  O2  UNL     1       3.321  10.870  16.823  0.00  0.00    -0.267 OA
ATOM      8  C9  UNL     1       4.665  12.948  18.605  0.00  0.00    +0.050 A 
ATOM      9  C10 UNL     1       5.481  13.986  19.164  0.00  0.00    +0.056 A 
ATOM     10  C11 UNL     1       6.481  14.625  18.343  0.00  0.00    +0.056 A 
ATOM     11  C12 UNL     1       6.646  14.213  16.980  0.00  0.00    +0.050 A 
ATOM     12  C13 UNL     1       7.314  15.621  18.923  0.00  0.00    +0.196 A 
ATOM     13  O3  UNL     1       8.258  16.135  18.261  0.00  0.00    -0.287 OA
ATOM     14  C14 UNL     1       7.126  16.036  20.254  0.00  0.00    +0.033 A 
ATOM     15  C15 UNL     1       6.147  15.411  21.057  0.00  0.00    +0.033 A 
ATOM     16  C16 UNL     1       5.359  14.373  20.527  0.00  0.00    +0.196 A 
ATOM     17  O4  UNL     1       4.559  13.772  21.296  0.00  0.00    -0.287 OA
ATOM     18  C17 UNL     1       5.988  15.825  22.398  0.00  0.00    +0.012 A 
ATOM     19  C18 UNL     1       6.781  16.844  22.928  0.00  0.00    +0.001 A 
ATOM     20  C19 UNL     1       7.746  17.460  22.135  0.00  0.00    +0.001 A 
ATOM     21  C20 UNL     1       7.922  17.061  20.810  0.00  0.00    +0.012 A 
ENDROOT
BRANCH   8  22
ATOM     22  N2  UNL     1       3.575  12.353  19.323  0.00  0.00    -0.357 N 
ATOM     23  H10 UNL     1       3.366  11.336  19.236  0.00  0.00    +0.142 HD
ATOM     24  H11 UNL     1       2.879  12.948  19.824  0.00  0.00    +0.142 HD
ENDBRANCH   8  22
BRANCH  11  25
ATOM     25  N3  UNL     1       7.535  14.881  16.074  0.00  0.00    -0.357 N 
ATOM     26  H12 UNL     1       8.083  14.347  15.366  0.00  0.00    +0.142 HD
ATOM     27  H13 UNL     1       7.537  15.923  16.001  0.00  0.00    +0.142 HD
ENDBRANCH  11  25
BRANCH   1  28
ATOM     28  C4  UNL     1       4.383  10.814  14.095  0.00  0.00    +0.128 C 
BRANCH  28  29
ATOM     29  C3  UNL     1       3.140  11.421  13.431  0.00  0.00    +0.021 C 
BRANCH  29  31
ATOM     30  C1  UNL     1       4.351  11.753  11.241  0.00  0.00    +0.004 C 
ATOM     31  C2  UNL     1       3.503  12.417  12.321  0.00  0.00    -0.002 C 
ENDBRANCH  29  31
ENDBRANCH  28  29
ENDBRANCH   1  28
TORSDOF 5
ENDMDL
