MODEL 1
REMARK minimizedAffinity -6.75408363
REMARK minimizedRMSD -1
REMARK  Name = /home/tchapet/Post-Doc/ARTICLES-DOSSIERS-DES-ARTICLES-EN-REDACTION/NOUVELS-AXES-DE-RECHERCHE-A-REGARDER-URGEMMENT/ARTICLES-EN-REDACTIONS/ARTICLE_MVOTO/Paper2_JCIM/docking_rerun/ligands/18506.pdb
REMARK  6 active torsions:
REMARK  status: ('A' for Active; 'I' for Inactive)
REMARK    1  A    between atoms: C1_1  and  C2_2
REMARK    2  A    between atoms: C2_2  and  C3_3
REMARK    3  A    between atoms: C3_3  and  C4_4
REMARK    4  A    between atoms: C4_4  and  N1_5
REMARK    5  A    between atoms: C9_12  and  N2_13
REMARK    6  A    between atoms: C12_16  and  N3_17
REMARK                            x       y       z     vdW  Elec       q    Type
REMARK                         _______ _______ _______ _____ _____    ______ ____
ROOT
ATOM      1  N1  UNL     1     -16.790  19.514  40.202  0.00  0.00    -0.275 N 
ATOM      2  C5  UNL     1     -16.116  19.393  41.367  0.00  0.00    +0.264 A 
ATOM      3  O1  UNL     1     -15.514  18.343  41.719  0.00  0.00    -0.267 OA
ATOM      4  C6  UNL     1     -16.161  20.583  42.081  0.00  0.00    +0.075 A 
ATOM      5  C7  UNL     1     -16.877  21.468  41.316  0.00  0.00    +0.075 A 
ATOM      6  C8  UNL     1     -17.243  20.787  40.164  0.00  0.00    +0.264 A 
ATOM      7  O2  UNL     1     -17.884  21.269  39.192  0.00  0.00    -0.267 OA
ATOM      8  C9  UNL     1     -17.048  22.804  41.691  0.00  0.00    +0.050 A 
ATOM      9  C10 UNL     1     -16.510  23.230  42.950  0.00  0.00    +0.056 A 
ATOM     10  C11 UNL     1     -15.756  22.299  43.753  0.00  0.00    +0.056 A 
ATOM     11  C12 UNL     1     -15.555  20.959  43.283  0.00  0.00    +0.050 A 
ATOM     12  C13 UNL     1     -15.267  22.721  45.021  0.00  0.00    +0.196 A 
ATOM     13  O3  UNL     1     -14.684  21.907  45.788  0.00  0.00    -0.287 OA
ATOM     14  C14 UNL     1     -15.448  24.045  45.460  0.00  0.00    +0.033 A 
ATOM     15  C15 UNL     1     -16.185  24.956  44.674  0.00  0.00    +0.033 A 
ATOM     16  C16 UNL     1     -16.741  24.542  43.449  0.00  0.00    +0.196 A 
ATOM     17  O4  UNL     1     -17.472  25.351  42.815  0.00  0.00    -0.287 OA
ATOM     18  C17 UNL     1     -16.376  26.276  45.142  0.00  0.00    +0.012 A 
ATOM     19  C18 UNL     1     -15.838  26.681  46.364  0.00  0.00    +0.001 A 
ATOM     20  C19 UNL     1     -15.111  25.782  47.140  0.00  0.00    +0.001 A 
ATOM     21  C20 UNL     1     -14.917  24.474  46.697  0.00  0.00    +0.012 A 
ENDROOT
BRANCH   8  22
ATOM     22  N2  UNL     1     -17.703  23.705  40.787  0.00  0.00    -0.357 N 
ATOM     23  H10 UNL     1     -18.529  23.401  40.230  0.00  0.00    +0.142 HD
ATOM     24  H11 UNL     1     -17.277  24.630  40.554  0.00  0.00    +0.142 HD
ENDBRANCH   8  22
BRANCH  11  25
ATOM     25  N3  UNL     1     -14.720  20.018  43.970  0.00  0.00    -0.357 N 
ATOM     26  H12 UNL     1     -14.976  19.008  44.021  0.00  0.00    +0.142 HD
ATOM     27  H13 UNL     1     -13.767  20.291  44.299  0.00  0.00    +0.142 HD
ENDBRANCH  11  25
BRANCH   1  28
ATOM     28  C4  UNL     1     -16.925  18.502  39.150  0.00  0.00    +0.128 C 
BRANCH  28  29
ATOM     29  C3  UNL     1     -18.103  17.560  39.431  0.00  0.00    +0.021 C 
BRANCH  29  31
ATOM     30  C1  UNL     1     -18.852  16.125  37.494  0.00  0.00    +0.004 C 
ATOM     31  C2  UNL     1     -17.948  16.209  38.720  0.00  0.00    -0.002 C 
ENDBRANCH  29  31
ENDBRANCH  28  29
ENDBRANCH   1  28
TORSDOF 5
ENDMDL
MODEL 2
REMARK minimizedAffinity -6.74121904
REMARK minimizedRMSD -1
REMARK  Name = /home/tchapet/Post-Doc/ARTICLES-DOSSIERS-DES-ARTICLES-EN-REDACTION/NOUVELS-AXES-DE-RECHERCHE-A-REGARDER-URGEMMENT/ARTICLES-EN-REDACTIONS/ARTICLE_MVOTO/Paper2_JCIM/docking_rerun/ligands/18506.pdb
REMARK  6 active torsions:
REMARK  status: ('A' for Active; 'I' for Inactive)
REMARK    1  A    between atoms: C1_1  and  C2_2
REMARK    2  A    between atoms: C2_2  and  C3_3
REMARK    3  A    between atoms: C3_3  and  C4_4
REMARK    4  A    between atoms: C4_4  and  N1_5
REMARK    5  A    between atoms: C9_12  and  N2_13
REMARK    6  A    between atoms: C12_16  and  N3_17
REMARK                            x       y       z     vdW  Elec       q    Type
REMARK                         _______ _______ _______ _____ _____    ______ ____
ROOT
ATOM      1  N1  UNL     1     -10.248  25.514  13.435  0.00  0.00    -0.275 N 
ATOM      2  C5  UNL     1     -10.053  24.329  12.815  0.00  0.00    +0.264 A 
ATOM      3  O1  UNL     1      -9.133  23.524  13.122  0.00  0.00    -0.267 OA
ATOM      4  C6  UNL     1     -11.018  24.127  11.836  0.00  0.00    +0.075 A 
ATOM      5  C7  UNL     1     -11.841  25.223  11.870  0.00  0.00    +0.075 A 
ATOM      6  C8  UNL     1     -11.349  26.054  12.867  0.00  0.00    +0.264 A 
ATOM      7  O2  UNL     1     -11.854  27.151  13.231  0.00  0.00    -0.267 OA
ATOM      8  C9  UNL     1     -12.984  25.319  11.071  0.00  0.00    +0.050 A 
ATOM      9  C10 UNL     1     -13.253  24.260  10.142  0.00  0.00    +0.056 A 
ATOM     10  C11 UNL     1     -12.387  23.106  10.108  0.00  0.00    +0.056 A 
ATOM     11  C12 UNL     1     -11.269  23.034  11.002  0.00  0.00    +0.050 A 
ATOM     12  C13 UNL     1     -12.640  22.084   9.152  0.00  0.00    +0.196 A 
ATOM     13  O3  UNL     1     -11.850  21.107   9.032  0.00  0.00    -0.287 OA
ATOM     14  C14 UNL     1     -13.755  22.153   8.297  0.00  0.00    +0.033 A 
ATOM     15  C15 UNL     1     -14.602  23.282   8.331  0.00  0.00    +0.033 A 
ATOM     16  C16 UNL     1     -14.332  24.339   9.219  0.00  0.00    +0.196 A 
ATOM     17  O4  UNL     1     -15.053  25.373   9.160  0.00  0.00    -0.287 OA
ATOM     18  C17 UNL     1     -15.705  23.343   7.450  0.00  0.00    +0.012 A 
ATOM     19  C18 UNL     1     -15.963  22.301   6.559  0.00  0.00    +0.001 A 
ATOM     20  C19 UNL     1     -15.127  21.188   6.525  0.00  0.00    +0.001 A 
ATOM     21  C20 UNL     1     -14.030  21.111   7.384  0.00  0.00    +0.012 A 
ENDROOT
BRANCH   8  22
ATOM     22  N2  UNL     1     -13.866  26.436  11.243  0.00  0.00    -0.357 N 
ATOM     23  H10 UNL     1     -13.493  27.394  11.417  0.00  0.00    +0.142 HD
ATOM     24  H11 UNL     1     -14.895  26.292  11.352  0.00  0.00    +0.142 HD
ENDBRANCH   8  22
BRANCH  11  25
ATOM     25  N3  UNL     1     -10.438  21.870  11.106  0.00  0.00    -0.357 N 
ATOM     26  H12 UNL     1      -9.409  21.955  11.253  0.00  0.00    +0.142 HD
ATOM     27  H13 UNL     1     -10.861  20.919  11.190  0.00  0.00    +0.142 HD
ENDBRANCH  11  25
BRANCH   1  28
ATOM     28  C4  UNL     1      -9.480  26.062  14.556  0.00  0.00    +0.128 C 
BRANCH  28  29
ATOM     29  C3  UNL     1     -10.177  25.790  15.895  0.00  0.00    +0.021 C 
BRANCH  29  31
ATOM     30  C1  UNL     1      -8.110  24.379  16.223  0.00  0.00    +0.004 C 
ATOM     31  C2  UNL     1      -9.561  24.597  16.639  0.00  0.00    -0.002 C 
ENDBRANCH  29  31
ENDBRANCH  28  29
ENDBRANCH   1  28
TORSDOF 5
ENDMDL
MODEL 3
REMARK minimizedAffinity -6.72142935
REMARK minimizedRMSD -1
REMARK  Name = /home/tchapet/Post-Doc/ARTICLES-DOSSIERS-DES-ARTICLES-EN-REDACTION/NOUVELS-AXES-DE-RECHERCHE-A-REGARDER-URGEMMENT/ARTICLES-EN-REDACTIONS/ARTICLE_MVOTO/Paper2_JCIM/docking_rerun/ligands/18506.pdb
REMARK  6 active torsions:
REMARK  status: ('A' for Active; 'I' for Inactive)
REMARK    1  A    between atoms: C1_1  and  C2_2
REMARK    2  A    between atoms: C2_2  and  C3_3
REMARK    3  A    between atoms: C3_3  and  C4_4
REMARK    4  A    between atoms: C4_4  and  N1_5
REMARK    5  A    between atoms: C9_12  and  N2_13
REMARK    6  A    between atoms: C12_16  and  N3_17
REMARK                            x       y       z     vdW  Elec       q    Type
REMARK                         _______ _______ _______ _____ _____    ______ ____
ROOT
ATOM      1  N1  UNL     1     -10.590  25.586  13.427  0.00  0.00    -0.275 N 
ATOM      2  C5  UNL     1     -11.548  26.322  12.821  0.00  0.00    +0.264 A 
ATOM      3  O1  UNL     1     -11.779  27.530  13.097  0.00  0.00    -0.267 OA
ATOM      4  C6  UNL     1     -12.197  25.571  11.850  0.00  0.00    +0.075 A 
ATOM      5  C7  UNL     1     -11.604  24.335  11.854  0.00  0.00    +0.075 A 
ATOM      6  C8  UNL     1     -10.614  24.376  12.826  0.00  0.00    +0.264 A 
ATOM      7  O2  UNL     1      -9.820  23.440  13.111  0.00  0.00    -0.267 OA
ATOM      8  C9  UNL     1     -11.952  23.341  10.934  0.00  0.00    +0.050 A 
ATOM      9  C10 UNL     1     -13.011  23.615  10.008  0.00  0.00    +0.056 A 
ATOM     10  C11 UNL     1     -13.634  24.916  10.003  0.00  0.00    +0.056 A 
ATOM     11  C12 UNL     1     -13.186  25.918  10.926  0.00  0.00    +0.050 A 
ATOM     12  C13 UNL     1     -14.714  25.160   9.110  0.00  0.00    +0.196 A 
ATOM     13  O3  UNL     1     -15.341  26.255   9.144  0.00  0.00    -0.287 OA
ATOM     14  C14 UNL     1     -15.128  24.178   8.192  0.00  0.00    +0.033 A 
ATOM     15  C15 UNL     1     -14.518  22.905   8.196  0.00  0.00    +0.033 A 
ATOM     16  C16 UNL     1     -13.496  22.616   9.118  0.00  0.00    +0.196 A 
ATOM     17  O4  UNL     1     -13.036  21.442   9.159  0.00  0.00    -0.287 OA
ATOM     18  C17 UNL     1     -14.962  21.924   7.281  0.00  0.00    +0.012 A 
ATOM     19  C18 UNL     1     -15.987  22.206   6.377  0.00  0.00    +0.001 A 
ATOM     20  C19 UNL     1     -16.589  23.462   6.374  0.00  0.00    +0.001 A 
ATOM     21  C20 UNL     1     -16.168  24.442   7.272  0.00  0.00    +0.012 A 
ENDROOT
BRANCH   8  22
ATOM     22  N2  UNL     1     -11.208  22.115  10.915  0.00  0.00    -0.357 N 
ATOM     23  H10 UNL     1     -10.895  21.662  11.800  0.00  0.00    +0.142 HD
ATOM     24  H11 UNL     1     -10.834  21.732  10.018  0.00  0.00    +0.142 HD
ENDBRANCH   8  22
BRANCH  11  25
ATOM     25  N3  UNL     1     -13.676  27.266  10.899  0.00  0.00    -0.357 N 
ATOM     26  H12 UNL     1     -13.835  27.798  11.781  0.00  0.00    +0.142 HD
ATOM     27  H13 UNL     1     -13.738  27.793   9.999  0.00  0.00    +0.142 HD
ENDBRANCH  11  25
BRANCH   1  28
ATOM     28  C4  UNL     1      -9.653  26.034  14.461  0.00  0.00    +0.128 C 
BRANCH  28  29
ATOM     29  C3  UNL     1     -10.225  25.811  15.867  0.00  0.00    +0.021 C 
BRANCH  29  31
ATOM     30  C1  UNL     1      -8.112  24.447  16.080  0.00  0.00    +0.004 C 
ATOM     31  C2  UNL     1      -9.532  24.654  16.598  0.00  0.00    -0.002 C 
ENDBRANCH  29  31
ENDBRANCH  28  29
ENDBRANCH   1  28
TORSDOF 5
ENDMDL
MODEL 4
REMARK minimizedAffinity -6.68011141
REMARK minimizedRMSD -1
REMARK  Name = /home/tchapet/Post-Doc/ARTICLES-DOSSIERS-DES-ARTICLES-EN-REDACTION/NOUVELS-AXES-DE-RECHERCHE-A-REGARDER-URGEMMENT/ARTICLES-EN-REDACTIONS/ARTICLE_MVOTO/Paper2_JCIM/docking_rerun/ligands/18506.pdb
REMARK  6 active torsions:
REMARK  status: ('A' for Active; 'I' for Inactive)
REMARK    1  A    between atoms: C1_1  and  C2_2
REMARK    2  A    between atoms: C2_2  and  C3_3
REMARK    3  A    between atoms: C3_3  and  C4_4
REMARK    4  A    between atoms: C4_4  and  N1_5
REMARK    5  A    between atoms: C9_12  and  N2_13
REMARK    6  A    between atoms: C12_16  and  N3_17
REMARK                            x       y       z     vdW  Elec       q    Type
REMARK                         _______ _______ _______ _____ _____    ______ ____
ROOT
ATOM      1  N1  UNL     1      -1.896  15.671  20.090  0.00  0.00    -0.275 N 
ATOM      2  C5  UNL     1      -1.319  15.191  21.213  0.00  0.00    +0.264 A 
ATOM      3  O1  UNL     1      -1.382  15.768  22.332  0.00  0.00    -0.267 OA
ATOM      4  C6  UNL     1      -0.689  13.979  20.957  0.00  0.00    +0.075 A 
ATOM      5  C7  UNL     1      -0.903  13.702  19.632  0.00  0.00    +0.075 A 
ATOM      6  C8  UNL     1      -1.655  14.754  19.126  0.00  0.00    +0.264 A 
ATOM      7  O2  UNL     1      -2.087  14.854  17.946  0.00  0.00    -0.267 OA
ATOM      8  C9  UNL     1      -0.480  12.507  19.045  0.00  0.00    +0.050 A 
ATOM      9  C10 UNL     1       0.259  11.579  19.851  0.00  0.00    +0.056 A 
ATOM     10  C11 UNL     1       0.483  11.871  21.246  0.00  0.00    +0.056 A 
ATOM     11  C12 UNL     1      -0.036  13.083  21.808  0.00  0.00    +0.050 A 
ATOM     12  C13 UNL     1       1.256  10.964  22.024  0.00  0.00    +0.196 A 
ATOM     13  O3  UNL     1       1.548  11.233  23.222  0.00  0.00    -0.287 OA
ATOM     14  C14 UNL     1       1.738   9.765  21.469  0.00  0.00    +0.033 A 
ATOM     15  C15 UNL     1       1.519   9.480  20.104  0.00  0.00    +0.033 A 
ATOM     16  C16 UNL     1       0.818  10.395  19.296  0.00  0.00    +0.196 A 
ATOM     17  O4  UNL     1       0.720  10.156  18.061  0.00  0.00    -0.287 OA
ATOM     18  C17 UNL     1       2.030   8.281  19.558  0.00  0.00    +0.012 A 
ATOM     19  C18 UNL     1       2.739   7.382  20.356  0.00  0.00    +0.001 A 
ATOM     20  C19 UNL     1       2.955   7.664  21.702  0.00  0.00    +0.001 A 
ATOM     21  C20 UNL     1       2.463   8.844  22.257  0.00  0.00    +0.012 A 
ENDROOT
BRANCH   8  22
ATOM     22  N2  UNL     1      -0.842  12.228  17.686  0.00  0.00    -0.357 N 
ATOM     23  H10 UNL     1      -0.838  12.979  16.963  0.00  0.00    +0.142 HD
ATOM     24  H11 UNL     1      -1.264  11.309  17.424  0.00  0.00    +0.142 HD
ENDBRANCH   8  22
BRANCH  11  25
ATOM     25  N3  UNL     1       0.045  13.381  23.209  0.00  0.00    -0.357 N 
ATOM     26  H12 UNL     1       0.220  14.354  23.543  0.00  0.00    +0.142 HD
ATOM     27  H13 UNL     1      -0.219  12.666  23.922  0.00  0.00    +0.142 HD
ENDBRANCH  11  25
BRANCH   1  28
ATOM     28  C4  UNL     1      -2.700  16.889  19.961  0.00  0.00    +0.128 C 
BRANCH  28  29
ATOM     29  C3  UNL     1      -4.052  16.743  20.670  0.00  0.00    +0.021 C 
BRANCH  29  31
ATOM     30  C1  UNL     1      -4.960  16.610  18.319  0.00  0.00    +0.004 C 
ATOM     31  C2  UNL     1      -5.123  16.130  19.758  0.00  0.00    -0.002 C 
ENDBRANCH  29  31
ENDBRANCH  28  29
ENDBRANCH   1  28
TORSDOF 5
ENDMDL
MODEL 5
REMARK minimizedAffinity -6.65493202
REMARK minimizedRMSD -1
REMARK  Name = /home/tchapet/Post-Doc/ARTICLES-DOSSIERS-DES-ARTICLES-EN-REDACTION/NOUVELS-AXES-DE-RECHERCHE-A-REGARDER-URGEMMENT/ARTICLES-EN-REDACTIONS/ARTICLE_MVOTO/Paper2_JCIM/docking_rerun/ligands/18506.pdb
REMARK  6 active torsions:
REMARK  status: ('A' for Active; 'I' for Inactive)
REMARK    1  A    between atoms: C1_1  and  C2_2
REMARK    2  A    between atoms: C2_2  and  C3_3
REMARK    3  A    between atoms: C3_3  and  C4_4
REMARK    4  A    between atoms: C4_4  and  N1_5
REMARK    5  A    between atoms: C9_12  and  N2_13
REMARK    6  A    between atoms: C12_16  and  N3_17
REMARK                            x       y       z     vdW  Elec       q    Type
REMARK                         _______ _______ _______ _____ _____    ______ ____
ROOT
ATOM      1  N1  UNL     1     -12.549  16.839  44.105  0.00  0.00    -0.275 N 
ATOM      2  C5  UNL     1     -13.087  17.938  44.679  0.00  0.00    +0.264 A 
ATOM      3  O1  UNL     1     -12.817  18.317  45.850  0.00  0.00    -0.267 OA
ATOM      4  C6  UNL     1     -13.935  18.586  43.789  0.00  0.00    +0.075 A 
ATOM      5  C7  UNL     1     -13.901  17.863  42.625  0.00  0.00    +0.075 A 
ATOM      6  C8  UNL     1     -13.035  16.801  42.845  0.00  0.00    +0.264 A 
ATOM      7  O2  UNL     1     -12.710  15.925  41.999  0.00  0.00    -0.267 OA
ATOM      8  C9  UNL     1     -14.576  18.279  41.473  0.00  0.00    +0.050 A 
ATOM      9  C10 UNL     1     -15.379  19.464  41.548  0.00  0.00    +0.056 A 
ATOM     10  C11 UNL     1     -15.412  20.225  42.774  0.00  0.00    +0.056 A 
ATOM     11  C12 UNL     1     -14.643  19.785  43.901  0.00  0.00    +0.050 A 
ATOM     12  C13 UNL     1     -16.248  21.374  42.848  0.00  0.00    +0.196 A 
ATOM     13  O3  UNL     1     -16.372  22.008  43.932  0.00  0.00    -0.287 OA
ATOM     14  C14 UNL     1     -16.978  21.810  41.728  0.00  0.00    +0.033 A 
ATOM     15  C15 UNL     1     -16.945  21.066  40.529  0.00  0.00    +0.033 A 
ATOM     16  C16 UNL     1     -16.182  19.887  40.453  0.00  0.00    +0.196 A 
ATOM     17  O4  UNL     1     -16.246  19.195  39.399  0.00  0.00    -0.287 OA
ATOM     18  C17 UNL     1     -17.702  21.509  39.421  0.00  0.00    +0.012 A 
ATOM     19  C18 UNL     1     -18.472  22.670  39.503  0.00  0.00    +0.001 A 
ATOM     20  C19 UNL     1     -18.504  23.403  40.686  0.00  0.00    +0.001 A 
ATOM     21  C20 UNL     1     -17.767  22.980  41.792  0.00  0.00    +0.012 A 
ENDROOT
BRANCH   8  22
ATOM     22  N2  UNL     1     -14.400  17.542  40.256  0.00  0.00    -0.357 N 
ATOM     23  H10 UNL     1     -14.348  16.501  40.260  0.00  0.00    +0.142 HD
ATOM     24  H11 UNL     1     -14.169  18.033  39.364  0.00  0.00    +0.142 HD
ENDBRANCH   8  22
BRANCH  11  25
ATOM     25  N3  UNL     1     -14.535  20.552  45.108  0.00  0.00    -0.357 N 
ATOM     26  H12 UNL     1     -14.509  20.087  46.040  0.00  0.00    +0.142 HD
ATOM     27  H13 UNL     1     -14.327  21.575  45.072  0.00  0.00    +0.142 HD
ENDBRANCH  11  25
BRANCH   1  28
ATOM     28  C4  UNL     1     -11.567  15.925  44.696  0.00  0.00    +0.128 C 
BRANCH  28  29
ATOM     29  C3  UNL     1     -12.251  14.848  45.549  0.00  0.00    +0.021 C 
BRANCH  29  31
ATOM     30  C1  UNL     1     -11.435  12.511  45.055  0.00  0.00    +0.004 C 
ATOM     31  C2  UNL     1     -12.505  13.557  44.759  0.00  0.00    -0.002 C 
ENDBRANCH  29  31
ENDBRANCH  28  29
ENDBRANCH   1  28
TORSDOF 5
ENDMDL
MODEL 6
REMARK minimizedAffinity -6.65480423
REMARK minimizedRMSD -1
REMARK  Name = /home/tchapet/Post-Doc/ARTICLES-DOSSIERS-DES-ARTICLES-EN-REDACTION/NOUVELS-AXES-DE-RECHERCHE-A-REGARDER-URGEMMENT/ARTICLES-EN-REDACTIONS/ARTICLE_MVOTO/Paper2_JCIM/docking_rerun/ligands/18506.pdb
REMARK  6 active torsions:
REMARK  status: ('A' for Active; 'I' for Inactive)
REMARK    1  A    between atoms: C1_1  and  C2_2
REMARK    2  A    between atoms: C2_2  and  C3_3
REMARK    3  A    between atoms: C3_3  and  C4_4
REMARK    4  A    between atoms: C4_4  and  N1_5
REMARK    5  A    between atoms: C9_12  and  N2_13
REMARK    6  A    between atoms: C12_16  and  N3_17
REMARK                            x       y       z     vdW  Elec       q    Type
REMARK                         _______ _______ _______ _____ _____    ______ ____
ROOT
ATOM      1  N1  UNL     1      -1.670  16.283  22.079  0.00  0.00    -0.275 N 
ATOM      2  C5  UNL     1      -1.015  15.463  22.930  0.00  0.00    +0.264 A 
ATOM      3  O1  UNL     1      -0.884  15.695  24.161  0.00  0.00    -0.267 OA
ATOM      4  C6  UNL     1      -0.550  14.338  22.259  0.00  0.00    +0.075 A 
ATOM      5  C7  UNL     1      -0.949  14.471  20.954  0.00  0.00    +0.075 A 
ATOM      6  C8  UNL     1      -1.643  15.671  20.875  0.00  0.00    +0.264 A 
ATOM      7  O2  UNL     1      -2.200  16.135  19.844  0.00  0.00    -0.267 OA
ATOM      8  C9  UNL     1      -0.727  13.470  20.004  0.00  0.00    +0.050 A 
ATOM      9  C10 UNL     1       0.003  12.303  20.406  0.00  0.00    +0.056 A 
ATOM     10  C11 UNL     1       0.422  12.164  21.780  0.00  0.00    +0.056 A 
ATOM     11  C12 UNL     1       0.103  13.194  22.725  0.00  0.00    +0.050 A 
ATOM     12  C13 UNL     1       1.184  11.023  22.155  0.00  0.00    +0.196 A 
ATOM     13  O3  UNL     1       1.644  10.914  23.325  0.00  0.00    -0.287 OA
ATOM     14  C14 UNL     1       1.469  10.006  21.225  0.00  0.00    +0.033 A 
ATOM     15  C15 UNL     1       1.059  10.143  19.882  0.00  0.00    +0.033 A 
ATOM     16  C16 UNL     1       0.366  11.296  19.470  0.00  0.00    +0.196 A 
ATOM     17  O4  UNL     1       0.095  11.431  18.245  0.00  0.00    -0.287 OA
ATOM     18  C17 UNL     1       1.373   9.122  18.957  0.00  0.00    +0.012 A 
ATOM     19  C18 UNL     1       2.075   7.986  19.363  0.00  0.00    +0.001 A 
ATOM     20  C19 UNL     1       2.479   7.852  20.688  0.00  0.00    +0.001 A 
ATOM     21  C20 UNL     1       2.183   8.851  21.615  0.00  0.00    +0.012 A 
ENDROOT
BRANCH   8  22
ATOM     22  N2  UNL     1      -1.276  13.621  18.688  0.00  0.00    -0.357 N 
ATOM     23  H10 UNL     1      -1.280  14.547  18.210  0.00  0.00    +0.142 HD
ATOM     24  H11 UNL     1      -1.819  12.846  18.245  0.00  0.00    +0.142 HD
ENDBRANCH   8  22
BRANCH  11  25
ATOM     25  N3  UNL     1       0.382  13.069  24.126  0.00  0.00    -0.357 N 
ATOM     26  H12 UNL     1       0.695  13.889  24.688  0.00  0.00    +0.142 HD
ATOM     27  H13 UNL     1       0.132  12.196  24.644  0.00  0.00    +0.142 HD
ENDBRANCH  11  25
BRANCH   1  28
ATOM     28  C4  UNL     1      -2.352  17.538  22.411  0.00  0.00    +0.128 C 
BRANCH  28  29
ATOM     29  C3  UNL     1      -1.415  18.741  22.250  0.00  0.00    +0.021 C 
BRANCH  29  31
ATOM     30  C1  UNL     1      -1.140  20.179  24.306  0.00  0.00    +0.004 C 
ATOM     31  C2  UNL     1      -0.582  19.002  23.512  0.00  0.00    -0.002 C 
ENDBRANCH  29  31
ENDBRANCH  28  29
ENDBRANCH   1  28
TORSDOF 5
ENDMDL
MODEL 7
REMARK minimizedAffinity -6.56746769
REMARK minimizedRMSD -1
REMARK  Name = /home/tchapet/Post-Doc/ARTICLES-DOSSIERS-DES-ARTICLES-EN-REDACTION/NOUVELS-AXES-DE-RECHERCHE-A-REGARDER-URGEMMENT/ARTICLES-EN-REDACTIONS/ARTICLE_MVOTO/Paper2_JCIM/docking_rerun/ligands/18506.pdb
REMARK  6 active torsions:
REMARK  status: ('A' for Active; 'I' for Inactive)
REMARK    1  A    between atoms: C1_1  and  C2_2
REMARK    2  A    between atoms: C2_2  and  C3_3
REMARK    3  A    between atoms: C3_3  and  C4_4
REMARK    4  A    between atoms: C4_4  and  N1_5
REMARK    5  A    between atoms: C9_12  and  N2_13
REMARK    6  A    between atoms: C12_16  and  N3_17
REMARK                            x       y       z     vdW  Elec       q    Type
REMARK                         _______ _______ _______ _____ _____    ______ ____
ROOT
ATOM      1  N1  UNL     1     -12.298  16.903  43.877  0.00  0.00    -0.275 N 
ATOM      2  C5  UNL     1     -12.981  16.799  42.716  0.00  0.00    +0.264 A 
ATOM      3  O1  UNL     1     -12.898  15.806  41.944  0.00  0.00    -0.267 OA
ATOM      4  C6  UNL     1     -13.792  17.911  42.527  0.00  0.00    +0.075 A 
ATOM      5  C7  UNL     1     -13.607  18.717  43.621  0.00  0.00    +0.075 A 
ATOM      6  C8  UNL     1     -12.691  18.068  44.438  0.00  0.00    +0.264 A 
ATOM      7  O2  UNL     1     -12.286  18.473  45.560  0.00  0.00    -0.267 OA
ATOM      8  C9  UNL     1     -14.339  19.893  43.809  0.00  0.00    +0.050 A 
ATOM      9  C10 UNL     1     -15.258  20.292  42.783  0.00  0.00    +0.056 A 
ATOM     10  C11 UNL     1     -15.453  19.443  41.633  0.00  0.00    +0.056 A 
ATOM     11  C12 UNL     1     -14.724  18.212  41.530  0.00  0.00    +0.050 A 
ATOM     12  C13 UNL     1     -16.334  19.872  40.602  0.00  0.00    +0.196 A 
ATOM     13  O3  UNL     1     -16.457  19.199  39.541  0.00  0.00    -0.287 OA
ATOM     14  C14 UNL     1     -17.063  21.068  40.726  0.00  0.00    +0.033 A 
ATOM     15  C15 UNL     1     -16.873  21.898  41.852  0.00  0.00    +0.033 A 
ATOM     16  C16 UNL     1     -15.953  21.530  42.851  0.00  0.00    +0.196 A 
ATOM     17  O4  UNL     1     -15.737  22.337  43.797  0.00  0.00    -0.287 OA
ATOM     18  C17 UNL     1     -17.598  23.107  41.948  0.00  0.00    +0.012 A 
ATOM     19  C18 UNL     1     -18.498  23.479  40.949  0.00  0.00    +0.001 A 
ATOM     20  C19 UNL     1     -18.685  22.660  39.838  0.00  0.00    +0.001 A 
ATOM     21  C20 UNL     1     -17.975  21.465  39.722  0.00  0.00    +0.012 A 
ENDROOT
BRANCH   8  22
ATOM     22  N2  UNL     1     -14.184  20.625  45.033  0.00  0.00    -0.357 N 
ATOM     23  H10 UNL     1     -13.249  20.732  45.480  0.00  0.00    +0.142 HD
ATOM     24  H11 UNL     1     -15.019  20.932  45.580  0.00  0.00    +0.142 HD
ENDBRANCH   8  22
BRANCH  11  25
ATOM     25  N3  UNL     1     -14.953  17.266  40.477  0.00  0.00    -0.357 N 
ATOM     26  H12 UNL     1     -14.164  16.731  40.053  0.00  0.00    +0.142 HD
ATOM     27  H13 UNL     1     -15.924  16.980  40.220  0.00  0.00    +0.142 HD
ENDBRANCH  11  25
BRANCH   1  28
ATOM     28  C4  UNL     1     -11.387  15.913  44.458  0.00  0.00    +0.128 C 
BRANCH  28  29
ATOM     29  C3  UNL     1     -12.127  14.964  45.410  0.00  0.00    +0.021 C 
BRANCH  29  31
ATOM     30  C1  UNL     1     -11.540  12.510  45.359  0.00  0.00    +0.004 C 
ATOM     31  C2  UNL     1     -12.420  13.604  44.762  0.00  0.00    -0.002 C 
ENDBRANCH  29  31
ENDBRANCH  28  29
ENDBRANCH   1  28
TORSDOF 5
ENDMDL
MODEL 8
REMARK minimizedAffinity -6.55151606
REMARK minimizedRMSD -1
REMARK  Name = /home/tchapet/Post-Doc/ARTICLES-DOSSIERS-DES-ARTICLES-EN-REDACTION/NOUVELS-AXES-DE-RECHERCHE-A-REGARDER-URGEMMENT/ARTICLES-EN-REDACTIONS/ARTICLE_MVOTO/Paper2_JCIM/docking_rerun/ligands/18506.pdb
REMARK  6 active torsions:
REMARK  status: ('A' for Active; 'I' for Inactive)
REMARK    1  A    between atoms: C1_1  and  C2_2
REMARK    2  A    between atoms: C2_2  and  C3_3
REMARK    3  A    between atoms: C3_3  and  C4_4
REMARK    4  A    between atoms: C4_4  and  N1_5
REMARK    5  A    between atoms: C9_12  and  N2_13
REMARK    6  A    between atoms: C12_16  and  N3_17
REMARK                            x       y       z     vdW  Elec       q    Type
REMARK                         _______ _______ _______ _____ _____    ______ ____
ROOT
ATOM      1  N1  UNL     1     -14.611  22.834   8.039  0.00  0.00    -0.275 N 
ATOM      2  C5  UNL     1     -14.721  24.120   8.442  0.00  0.00    +0.264 A 
ATOM      3  O1  UNL     1     -15.553  24.933   7.960  0.00  0.00    -0.267 OA
ATOM      4  C6  UNL     1     -13.820  24.388   9.465  0.00  0.00    +0.075 A 
ATOM      5  C7  UNL     1     -13.145  23.218   9.705  0.00  0.00    +0.075 A 
ATOM      6  C8  UNL     1     -13.658  22.279   8.820  0.00  0.00    +0.264 A 
ATOM      7  O2  UNL     1     -13.320  21.067   8.752  0.00  0.00    -0.267 OA
ATOM      8  C9  UNL     1     -12.214  23.097  10.740  0.00  0.00    +0.050 A 
ATOM      9  C10 UNL     1     -11.915  24.260  11.523  0.00  0.00    +0.056 A 
ATOM     10  C11 UNL     1     -12.626  25.490  11.271  0.00  0.00    +0.056 A 
ATOM     11  C12 UNL     1     -13.621  25.533  10.240  0.00  0.00    +0.050 A 
ATOM     12  C13 UNL     1     -12.288  26.648  12.025  0.00  0.00    +0.196 A 
ATOM     13  O3  UNL     1     -12.824  27.761  11.768  0.00  0.00    -0.287 OA
ATOM     14  C14 UNL     1     -11.328  26.587  13.051  0.00  0.00    +0.033 A 
ATOM     15  C15 UNL     1     -10.633  25.384  13.298  0.00  0.00    +0.033 A 
ATOM     16  C16 UNL     1     -10.899  24.244  12.518  0.00  0.00    +0.196 A 
ATOM     17  O4  UNL     1     -10.196  23.212  12.701  0.00  0.00    -0.287 OA
ATOM     18  C17 UNL     1      -9.657  25.348  14.319  0.00  0.00    +0.012 A 
ATOM     19  C18 UNL     1      -9.382  26.484  15.082  0.00  0.00    +0.001 A 
ATOM     20  C19 UNL     1     -10.068  27.671  14.837  0.00  0.00    +0.001 A 
ATOM     21  C20 UNL     1     -11.032  27.727  13.831  0.00  0.00    +0.012 A 
ENDROOT
BRANCH   8  22
ATOM     22  N2  UNL     1     -11.634  21.814  11.013  0.00  0.00    -0.357 N 
ATOM     23  H10 UNL     1     -11.366  21.170  10.239  0.00  0.00    +0.142 HD
ATOM     24  H11 UNL     1     -11.611  21.436  11.986  0.00  0.00    +0.142 HD
ENDBRANCH   8  22
BRANCH  11  25
ATOM     25  N3  UNL     1     -14.448  26.683  10.013  0.00  0.00    -0.357 N 
ATOM     26  H12 UNL     1     -14.717  26.970   9.047  0.00  0.00    +0.142 HD
ATOM     27  H13 UNL     1     -14.921  27.165  10.810  0.00  0.00    +0.142 HD
ENDBRANCH  11  25
BRANCH   1  28
ATOM     28  C4  UNL     1     -15.421  22.154   7.025  0.00  0.00    +0.128 C 
BRANCH  28  29
ATOM     29  C3  UNL     1     -14.958  22.513   5.607  0.00  0.00    +0.021 C 
BRANCH  29  31
ATOM     30  C1  UNL     1     -14.024  20.178   5.393  0.00  0.00    +0.004 C 
ATOM     31  C2  UNL     1     -13.764  21.662   5.154  0.00  0.00    -0.002 C 
ENDBRANCH  29  31
ENDBRANCH  28  29
ENDBRANCH   1  28
TORSDOF 5
ENDMDL
MODEL 9
REMARK minimizedAffinity -6.51547956
REMARK minimizedRMSD -1
REMARK  Name = /home/tchapet/Post-Doc/ARTICLES-DOSSIERS-DES-ARTICLES-EN-REDACTION/NOUVELS-AXES-DE-RECHERCHE-A-REGARDER-URGEMMENT/ARTICLES-EN-REDACTIONS/ARTICLE_MVOTO/Paper2_JCIM/docking_rerun/ligands/18506.pdb
REMARK  6 active torsions:
REMARK  status: ('A' for Active; 'I' for Inactive)
REMARK    1  A    between atoms: C1_1  and  C2_2
REMARK    2  A    between atoms: C2_2  and  C3_3
REMARK    3  A    between atoms: C3_3  and  C4_4
REMARK    4  A    between atoms: C4_4  and  N1_5
REMARK    5  A    between atoms: C9_12  and  N2_13
REMARK    6  A    between atoms: C12_16  and  N3_17
REMARK                            x       y       z     vdW  Elec       q    Type
REMARK                         _______ _______ _______ _____ _____    ______ ____
ROOT
ATOM      1  N1  UNL     1     -13.741  19.404  44.101  0.00  0.00    -0.275 N 
ATOM      2  C5  UNL     1     -14.674  20.055  43.372  0.00  0.00    +0.264 A 
ATOM      3  O1  UNL     1     -15.273  19.543  42.389  0.00  0.00    -0.267 OA
ATOM      4  C6  UNL     1     -14.887  21.330  43.881  0.00  0.00    +0.075 A 
ATOM      5  C7  UNL     1     -14.064  21.456  44.970  0.00  0.00    +0.075 A 
ATOM      6  C8  UNL     1     -13.378  20.255  45.087  0.00  0.00    +0.264 A 
ATOM      7  O2  UNL     1     -12.549  19.963  45.989  0.00  0.00    -0.267 OA
ATOM      8  C9  UNL     1     -14.081  22.591  45.786  0.00  0.00    +0.050 A 
ATOM      9  C10 UNL     1     -14.942  23.677  45.420  0.00  0.00    +0.056 A 
ATOM     10  C11 UNL     1     -15.809  23.543  44.274  0.00  0.00    +0.056 A 
ATOM     11  C12 UNL     1     -15.797  22.326  43.517  0.00  0.00    +0.050 A 
ATOM     12  C13 UNL     1     -16.625  24.645  43.896  0.00  0.00    +0.196 A 
ATOM     13  O3  UNL     1     -17.326  24.595  42.848  0.00  0.00    -0.287 OA
ATOM     14  C14 UNL     1     -16.648  25.824  44.662  0.00  0.00    +0.033 A 
ATOM     15  C15 UNL     1     -15.800  25.955  45.783  0.00  0.00    +0.033 A 
ATOM     16  C16 UNL     1     -14.931  24.906  46.136  0.00  0.00    +0.196 A 
ATOM     17  O4  UNL     1     -14.121  25.089  47.085  0.00  0.00    -0.287 OA
ATOM     18  C17 UNL     1     -15.821  27.156  46.527  0.00  0.00    +0.012 A 
ATOM     19  C18 UNL     1     -16.671  28.202  46.168  0.00  0.00    +0.001 A 
ATOM     20  C19 UNL     1     -17.507  28.072  45.062  0.00  0.00    +0.001 A 
ATOM     21  C20 UNL     1     -17.498  26.897  44.311  0.00  0.00    +0.012 A 
ENDROOT
BRANCH   8  22
ATOM     22  N2  UNL     1     -13.283  22.607  46.978  0.00  0.00    -0.357 N 
ATOM     23  H10 UNL     1     -12.325  22.196  46.989  0.00  0.00    +0.142 HD
ATOM     24  H11 UNL     1     -13.698  22.890  47.893  0.00  0.00    +0.142 HD
ENDBRANCH   8  22
BRANCH  11  25
ATOM     25  N3  UNL     1     -16.713  22.078  42.441  0.00  0.00    -0.357 N 
ATOM     26  H12 UNL     1     -16.411  21.566  41.585  0.00  0.00    +0.142 HD
ATOM     27  H13 UNL     1     -17.734  22.267  42.556  0.00  0.00    +0.142 HD
ENDBRANCH  11  25
BRANCH   1  28
ATOM     28  C4  UNL     1     -13.281  18.025  43.919  0.00  0.00    +0.128 C 
BRANCH  28  29
ATOM     29  C3  UNL     1     -11.874  17.982  43.307  0.00  0.00    +0.021 C 
BRANCH  29  31
ATOM     30  C1  UNL     1     -10.299  18.981  41.606  0.00  0.00    +0.004 C 
ATOM     31  C2  UNL     1     -11.745  18.900  42.083  0.00  0.00    -0.002 C 
ENDBRANCH  29  31
ENDBRANCH  28  29
ENDBRANCH   1  28
TORSDOF 5
ENDMDL
