MODEL 1
REMARK minimizedAffinity -6.61609745
REMARK minimizedRMSD -1
REMARK  Name = /home/tchapet/Post-Doc/ARTICLES-DOSSIERS-DES-ARTICLES-EN-REDACTION/NOUVELS-AXES-DE-RECHERCHE-A-REGARDER-URGEMMENT/ARTICLES-EN-REDACTIONS/ARTICLE_MVOTO/Paper2_JCIM/docking_rerun/ligands/18506.pdb
REMARK  6 active torsions:
REMARK  status: ('A' for Active; 'I' for Inactive)
REMARK    1  A    between atoms: C1_1  and  C2_2
REMARK    2  A    between atoms: C2_2  and  C3_3
REMARK    3  A    between atoms: C3_3  and  C4_4
REMARK    4  A    between atoms: C4_4  and  N1_5
REMARK    5  A    between atoms: C9_12  and  N2_13
REMARK    6  A    between atoms: C12_16  and  N3_17
REMARK                            x       y       z     vdW  Elec       q    Type
REMARK                         _______ _______ _______ _____ _____    ______ ____
ROOT
ATOM      1  N1  UNL     1      -1.650 -14.248  19.119  0.00  0.00    -0.275 N 
ATOM      2  C5  UNL     1      -0.488 -14.513  19.757  0.00  0.00    +0.264 A 
ATOM      3  O1  UNL     1       0.639 -14.484  19.194  0.00  0.00    -0.267 OA
ATOM      4  C6  UNL     1      -0.720 -14.783  21.100  0.00  0.00    +0.075 A 
ATOM      5  C7  UNL     1      -2.073 -14.664  21.291  0.00  0.00    +0.075 A 
ATOM      6  C8  UNL     1      -2.617 -14.326  20.060  0.00  0.00    +0.264 A 
ATOM      7  O2  UNL     1      -3.834 -14.093  19.829  0.00  0.00    -0.267 OA
ATOM      8  C9  UNL     1      -2.657 -14.783  22.555  0.00  0.00    +0.050 A 
ATOM      9  C10 UNL     1      -1.810 -15.109  23.666  0.00  0.00    +0.056 A 
ATOM     10  C11 UNL     1      -0.387 -15.233  23.464  0.00  0.00    +0.056 A 
ATOM     11  C12 UNL     1       0.162 -15.030  22.155  0.00  0.00    +0.050 A 
ATOM     12  C13 UNL     1       0.436 -15.600  24.564  0.00  0.00    +0.196 A 
ATOM     13  O3  UNL     1       1.670 -15.807  24.403  0.00  0.00    -0.287 OA
ATOM     14  C14 UNL     1      -0.110 -15.771  25.849  0.00  0.00    +0.033 A 
ATOM     15  C15 UNL     1      -1.503 -15.649  26.047  0.00  0.00    +0.033 A 
ATOM     16  C16 UNL     1      -2.346 -15.357  24.960  0.00  0.00    +0.196 A 
ATOM     17  O4  UNL     1      -3.593 -15.347  25.151  0.00  0.00    -0.287 OA
ATOM     18  C17 UNL     1      -2.035 -15.846  27.341  0.00  0.00    +0.012 A 
ATOM     19  C18 UNL     1      -1.200 -16.152  28.416  0.00  0.00    +0.001 A 
ATOM     20  C19 UNL     1       0.173 -16.272  28.220  0.00  0.00    +0.001 A 
ATOM     21  C20 UNL     1       0.717 -16.087  26.950  0.00  0.00    +0.012 A 
ENDROOT
BRANCH   8  22
ATOM     22  N2  UNL     1      -4.060 -14.527  22.705  0.00  0.00    -0.357 N 
ATOM     23  H10 UNL     1      -4.744 -14.844  21.984  0.00  0.00    +0.142 HD
ATOM     24  H11 UNL     1      -4.409 -13.889  23.454  0.00  0.00    +0.142 HD
ENDBRANCH   8  22
BRANCH  11  25
ATOM     25  N3  UNL     1       1.574 -15.021  21.903  0.00  0.00    -0.357 N 
ATOM     26  H12 UNL     1       1.967 -15.432  21.029  0.00  0.00    +0.142 HD
ATOM     27  H13 UNL     1       2.220 -14.469  22.512  0.00  0.00    +0.142 HD
ENDBRANCH  11  25
BRANCH   1  28
ATOM     28  C4  UNL     1      -1.819 -13.864  17.715  0.00  0.00    +0.128 C 
BRANCH  28  29
ATOM     29  C3  UNL     1      -2.065 -12.356  17.575  0.00  0.00    +0.021 C 
BRANCH  29  31
ATOM     30  C1  UNL     1      -0.908 -10.157  18.019  0.00  0.00    +0.004 C 
ATOM     31  C2  UNL     1      -0.756 -11.564  17.450  0.00  0.00    -0.002 C 
ENDBRANCH  29  31
ENDBRANCH  28  29
ENDBRANCH   1  28
TORSDOF 5
ENDMDL
MODEL 2
REMARK minimizedAffinity -6.53599119
REMARK minimizedRMSD -1
REMARK  Name = /home/tchapet/Post-Doc/ARTICLES-DOSSIERS-DES-ARTICLES-EN-REDACTION/NOUVELS-AXES-DE-RECHERCHE-A-REGARDER-URGEMMENT/ARTICLES-EN-REDACTIONS/ARTICLE_MVOTO/Paper2_JCIM/docking_rerun/ligands/18506.pdb
REMARK  6 active torsions:
REMARK  status: ('A' for Active; 'I' for Inactive)
REMARK    1  A    between atoms: C1_1  and  C2_2
REMARK    2  A    between atoms: C2_2  and  C3_3
REMARK    3  A    between atoms: C3_3  and  C4_4
REMARK    4  A    between atoms: C4_4  and  N1_5
REMARK    5  A    between atoms: C9_12  and  N2_13
REMARK    6  A    between atoms: C12_16  and  N3_17
REMARK                            x       y       z     vdW  Elec       q    Type
REMARK                         _______ _______ _______ _____ _____    ______ ____
ROOT
ATOM      1  N1  UNL     1      -1.604 -13.793  18.278  0.00  0.00    -0.275 N 
ATOM      2  C5  UNL     1      -2.729 -14.043  18.983  0.00  0.00    +0.264 A 
ATOM      3  O1  UNL     1      -3.886 -14.021  18.482  0.00  0.00    -0.267 OA
ATOM      4  C6  UNL     1      -2.419 -14.351  20.302  0.00  0.00    +0.075 A 
ATOM      5  C7  UNL     1      -1.053 -14.301  20.401  0.00  0.00    +0.075 A 
ATOM      6  C8  UNL     1      -0.578 -13.965  19.141  0.00  0.00    +0.264 A 
ATOM      7  O2  UNL     1       0.634 -13.854  18.813  0.00  0.00    -0.267 OA
ATOM      8  C9  UNL     1      -0.381 -14.645  21.578  0.00  0.00    +0.050 A 
ATOM      9  C10 UNL     1      -1.163 -14.993  22.728  0.00  0.00    +0.056 A 
ATOM     10  C11 UNL     1      -2.601 -15.046  22.622  0.00  0.00    +0.056 A 
ATOM     11  C12 UNL     1      -3.229 -14.750  21.368  0.00  0.00    +0.050 A 
ATOM     12  C13 UNL     1      -3.366 -15.348  23.783  0.00  0.00    +0.196 A 
ATOM     13  O3  UNL     1      -4.627 -15.313  23.748  0.00  0.00    -0.287 OA
ATOM     14  C14 UNL     1      -2.738 -15.663  25.001  0.00  0.00    +0.033 A 
ATOM     15  C15 UNL     1      -1.331 -15.611  25.104  0.00  0.00    +0.033 A 
ATOM     16  C16 UNL     1      -0.555 -15.245  23.990  0.00  0.00    +0.196 A 
ATOM     17  O4  UNL     1       0.691 -15.117  24.139  0.00  0.00    -0.287 OA
ATOM     18  C17 UNL     1      -0.719 -15.908  26.343  0.00  0.00    +0.012 A 
ATOM     19  C18 UNL     1      -1.489 -16.256  27.453  0.00  0.00    +0.001 A 
ATOM     20  C19 UNL     1      -2.877 -16.307  27.350  0.00  0.00    +0.001 A 
ATOM     21  C20 UNL     1      -3.500 -16.011  26.138  0.00  0.00    +0.012 A 
ENDROOT
BRANCH   8  22
ATOM     22  N2  UNL     1       1.052 -14.688  21.577  0.00  0.00    -0.357 N 
ATOM     23  H10 UNL     1       1.612 -13.974  21.065  0.00  0.00    +0.142 HD
ATOM     24  H11 UNL     1       1.561 -15.517  21.958  0.00  0.00    +0.142 HD
ENDBRANCH   8  22
BRANCH  11  25
ATOM     25  N3  UNL     1      -4.640 -14.897  21.158  0.00  0.00    -0.357 N 
ATOM     26  H12 UNL     1      -5.169 -14.222  20.566  0.00  0.00    +0.142 HD
ATOM     27  H13 UNL     1      -5.137 -15.763  21.466  0.00  0.00    +0.142 HD
ENDBRANCH  11  25
BRANCH   1  28
ATOM     28  C4  UNL     1      -1.506 -13.488  16.848  0.00  0.00    +0.128 C 
BRANCH  28  29
ATOM     29  C3  UNL     1      -1.859 -12.022  16.565  0.00  0.00    +0.021 C 
BRANCH  29  31
ATOM     30  C1  UNL     1      -0.850 -10.275  18.082  0.00  0.00    +0.004 C 
ATOM     31  C2  UNL     1      -0.668 -11.083  16.801  0.00  0.00    -0.002 C 
ENDBRANCH  29  31
ENDBRANCH  28  29
ENDBRANCH   1  28
TORSDOF 5
ENDMDL
MODEL 3
REMARK minimizedAffinity -6.49582338
REMARK minimizedRMSD -1
REMARK  Name = /home/tchapet/Post-Doc/ARTICLES-DOSSIERS-DES-ARTICLES-EN-REDACTION/NOUVELS-AXES-DE-RECHERCHE-A-REGARDER-URGEMMENT/ARTICLES-EN-REDACTIONS/ARTICLE_MVOTO/Paper2_JCIM/docking_rerun/ligands/18506.pdb
REMARK  6 active torsions:
REMARK  status: ('A' for Active; 'I' for Inactive)
REMARK    1  A    between atoms: C1_1  and  C2_2
REMARK    2  A    between atoms: C2_2  and  C3_3
REMARK    3  A    between atoms: C3_3  and  C4_4
REMARK    4  A    between atoms: C4_4  and  N1_5
REMARK    5  A    between atoms: C9_12  and  N2_13
REMARK    6  A    between atoms: C12_16  and  N3_17
REMARK                            x       y       z     vdW  Elec       q    Type
REMARK                         _______ _______ _______ _____ _____    ______ ____
ROOT
ATOM      1  N1  UNL     1       6.393  -2.767   0.063  0.00  0.00    -0.275 N 
ATOM      2  C5  UNL     1       5.895  -3.820   0.747  0.00  0.00    +0.264 A 
ATOM      3  O1  UNL     1       6.579  -4.827   1.074  0.00  0.00    -0.267 OA
ATOM      4  C6  UNL     1       4.556  -3.612   1.052  0.00  0.00    +0.075 A 
ATOM      5  C7  UNL     1       4.229  -2.380   0.549  0.00  0.00    +0.075 A 
ATOM      6  C8  UNL     1       5.379  -1.880  -0.046  0.00  0.00    +0.264 A 
ATOM      7  O2  UNL     1       5.497  -0.751  -0.594  0.00  0.00    -0.267 OA
ATOM      8  C9  UNL     1       2.972  -1.804   0.751  0.00  0.00    +0.050 A 
ATOM      9  C10 UNL     1       1.980  -2.568   1.451  0.00  0.00    +0.056 A 
ATOM     10  C11 UNL     1       2.325  -3.865   1.982  0.00  0.00    +0.056 A 
ATOM     11  C12 UNL     1       3.654  -4.372   1.802  0.00  0.00    +0.050 A 
ATOM     12  C13 UNL     1       1.320  -4.631   2.635  0.00  0.00    +0.196 A 
ATOM     13  O3  UNL     1       1.562  -5.805   3.029  0.00  0.00    -0.287 OA
ATOM     14  C14 UNL     1       0.027  -4.112   2.829  0.00  0.00    +0.033 A 
ATOM     15  C15 UNL     1      -0.309  -2.843   2.310  0.00  0.00    +0.033 A 
ATOM     16  C16 UNL     1       0.647  -2.096   1.598  0.00  0.00    +0.196 A 
ATOM     17  O4  UNL     1       0.288  -1.009   1.067  0.00  0.00    -0.287 OA
ATOM     18  C17 UNL     1      -1.620  -2.348   2.495  0.00  0.00    +0.012 A 
ATOM     19  C18 UNL     1      -2.572  -3.096   3.188  0.00  0.00    +0.001 A 
ATOM     20  C19 UNL     1      -2.239  -4.348   3.699  0.00  0.00    +0.001 A 
ATOM     21  C20 UNL     1      -0.953  -4.856   3.522  0.00  0.00    +0.012 A 
ENDROOT
BRANCH   8  22
ATOM     22  N2  UNL     1       2.736  -0.463   0.303  0.00  0.00    -0.357 N 
ATOM     23  H10 UNL     1       3.121  -0.124  -0.605  0.00  0.00    +0.142 HD
ATOM     24  H11 UNL     1       2.308   0.246   0.940  0.00  0.00    +0.142 HD
ENDBRANCH   8  22
BRANCH  11  25
ATOM     25  N3  UNL     1       4.100  -5.596   2.402  0.00  0.00    -0.357 N 
ATOM     26  H12 UNL     1       4.746  -6.240   1.896  0.00  0.00    +0.142 HD
ATOM     27  H13 UNL     1       3.913  -5.795   3.411  0.00  0.00    +0.142 HD
ENDBRANCH  11  25
BRANCH   1  28
ATOM     28  C4  UNL     1       7.775  -2.581  -0.390  0.00  0.00    +0.128 C 
BRANCH  28  29
ATOM     29  C3  UNL     1       8.706  -2.250   0.784  0.00  0.00    +0.021 C 
BRANCH  29  31
ATOM     30  C1  UNL     1      10.169  -0.324   1.505  0.00  0.00    +0.004 C 
ATOM     31  C2  UNL     1       8.769  -0.743   1.068  0.00  0.00    -0.002 C 
ENDBRANCH  29  31
ENDBRANCH  28  29
ENDBRANCH   1  28
TORSDOF 5
ENDMDL
MODEL 4
REMARK minimizedAffinity -6.25809622
REMARK minimizedRMSD -1
REMARK  Name = /home/tchapet/Post-Doc/ARTICLES-DOSSIERS-DES-ARTICLES-EN-REDACTION/NOUVELS-AXES-DE-RECHERCHE-A-REGARDER-URGEMMENT/ARTICLES-EN-REDACTIONS/ARTICLE_MVOTO/Paper2_JCIM/docking_rerun/ligands/18506.pdb
REMARK  6 active torsions:
REMARK  status: ('A' for Active; 'I' for Inactive)
REMARK    1  A    between atoms: C1_1  and  C2_2
REMARK    2  A    between atoms: C2_2  and  C3_3
REMARK    3  A    between atoms: C3_3  and  C4_4
REMARK    4  A    between atoms: C4_4  and  N1_5
REMARK    5  A    between atoms: C9_12  and  N2_13
REMARK    6  A    between atoms: C12_16  and  N3_17
REMARK                            x       y       z     vdW  Elec       q    Type
REMARK                         _______ _______ _______ _____ _____    ______ ____
ROOT
ATOM      1  N1  UNL     1       8.662  -8.434  30.499  0.00  0.00    -0.275 N 
ATOM      2  C5  UNL     1       7.536  -9.027  30.046  0.00  0.00    +0.264 A 
ATOM      3  O1  UNL     1       6.380  -8.558  30.224  0.00  0.00    -0.267 OA
ATOM      4  C6  UNL     1       7.844 -10.187  29.346  0.00  0.00    +0.075 A 
ATOM      5  C7  UNL     1       9.211 -10.297  29.358  0.00  0.00    +0.075 A 
ATOM      6  C8  UNL     1       9.687  -9.202  30.066  0.00  0.00    +0.264 A 
ATOM      7  O2  UNL     1      10.900  -8.924  30.269  0.00  0.00    -0.267 OA
ATOM      8  C9  UNL     1       9.880 -11.310  28.667  0.00  0.00    +0.050 A 
ATOM      9  C10 UNL     1       9.097 -12.297  27.983  0.00  0.00    +0.056 A 
ATOM     10  C11 UNL     1       7.659 -12.180  27.968  0.00  0.00    +0.056 A 
ATOM     11  C12 UNL     1       7.033 -11.078  28.639  0.00  0.00    +0.050 A 
ATOM     12  C13 UNL     1       6.893 -13.190  27.325  0.00  0.00    +0.196 A 
ATOM     13  O3  UNL     1       5.632 -13.168  27.372  0.00  0.00    -0.287 OA
ATOM     14  C14 UNL     1       7.519 -14.252  26.648  0.00  0.00    +0.033 A 
ATOM     15  C15 UNL     1       8.926 -14.366  26.662  0.00  0.00    +0.033 A 
ATOM     16  C16 UNL     1       9.703 -13.419  27.352  0.00  0.00    +0.196 A 
ATOM     17  O4  UNL     1      10.950 -13.600  27.424  0.00  0.00    -0.287 OA
ATOM     18  C17 UNL     1       9.537 -15.452  25.995  0.00  0.00    +0.012 A 
ATOM     19  C18 UNL     1       8.764 -16.401  25.324  0.00  0.00    +0.001 A 
ATOM     20  C19 UNL     1       7.376 -16.288  25.311  0.00  0.00    +0.001 A 
ATOM     21  C20 UNL     1       6.755 -15.226  25.967  0.00  0.00    +0.012 A 
ENDROOT
BRANCH   8  22
ATOM     22  N2  UNL     1      11.314 -11.296  28.622  0.00  0.00    -0.357 N 
ATOM     23  H10 UNL     1      11.875 -11.029  29.458  0.00  0.00    +0.142 HD
ATOM     24  H11 UNL     1      11.820 -11.403  27.714  0.00  0.00    +0.142 HD
ENDBRANCH   8  22
BRANCH  11  25
ATOM     25  N3  UNL     1       5.621 -10.833  28.567  0.00  0.00    -0.357 N 
ATOM     26  H12 UNL     1       5.094 -10.478  29.393  0.00  0.00    +0.142 HD
ATOM     27  H13 UNL     1       5.122 -10.858  27.649  0.00  0.00    +0.142 HD
ENDBRANCH  11  25
BRANCH   1  28
ATOM     28  C4  UNL     1       8.762  -7.168  31.229  0.00  0.00    +0.128 C 
BRANCH  28  29
ATOM     29  C3  UNL     1       8.478  -7.363  32.725  0.00  0.00    +0.021 C 
BRANCH  29  31
ATOM     30  C1  UNL     1       9.268  -9.422  33.952  0.00  0.00    +0.004 C 
ATOM     31  C2  UNL     1       9.651  -8.032  33.455  0.00  0.00    -0.002 C 
ENDBRANCH  29  31
ENDBRANCH  28  29
ENDBRANCH   1  28
TORSDOF 5
ENDMDL
MODEL 5
REMARK minimizedAffinity -6.24629736
REMARK minimizedRMSD -1
REMARK  Name = /home/tchapet/Post-Doc/ARTICLES-DOSSIERS-DES-ARTICLES-EN-REDACTION/NOUVELS-AXES-DE-RECHERCHE-A-REGARDER-URGEMMENT/ARTICLES-EN-REDACTIONS/ARTICLE_MVOTO/Paper2_JCIM/docking_rerun/ligands/18506.pdb
REMARK  6 active torsions:
REMARK  status: ('A' for Active; 'I' for Inactive)
REMARK    1  A    between atoms: C1_1  and  C2_2
REMARK    2  A    between atoms: C2_2  and  C3_3
REMARK    3  A    between atoms: C3_3  and  C4_4
REMARK    4  A    between atoms: C4_4  and  N1_5
REMARK    5  A    between atoms: C9_12  and  N2_13
REMARK    6  A    between atoms: C12_16  and  N3_17
REMARK                            x       y       z     vdW  Elec       q    Type
REMARK                         _______ _______ _______ _____ _____    ______ ____
ROOT
ATOM      1  N1  UNL     1       8.604 -11.219  29.099  0.00  0.00    -0.275 N 
ATOM      2  C5  UNL     1       9.419 -12.070  28.436  0.00  0.00    +0.264 A 
ATOM      3  O1  UNL     1      10.674 -12.058  28.540  0.00  0.00    -0.267 OA
ATOM      4  C6  UNL     1       8.675 -12.956  27.667  0.00  0.00    +0.075 A 
ATOM      5  C7  UNL     1       7.357 -12.644  27.881  0.00  0.00    +0.075 A 
ATOM      6  C8  UNL     1       7.343 -11.579  28.771  0.00  0.00    +0.264 A 
ATOM      7  O2  UNL     1       6.315 -11.024  29.244  0.00  0.00    -0.267 OA
ATOM      8  C9  UNL     1       6.316 -13.397  27.329  0.00  0.00    +0.050 A 
ATOM      9  C10 UNL     1       6.654 -14.485  26.458  0.00  0.00    +0.056 A 
ATOM     10  C11 UNL     1       8.041 -14.814  26.235  0.00  0.00    +0.056 A 
ATOM     11  C12 UNL     1       9.063 -14.047  26.886  0.00  0.00    +0.050 A 
ATOM     12  C13 UNL     1       8.363 -15.867  25.335  0.00  0.00    +0.196 A 
ATOM     13  O3  UNL     1       9.565 -16.120  25.046  0.00  0.00    -0.287 OA
ATOM     14  C14 UNL     1       7.351 -16.629  24.722  0.00  0.00    +0.033 A 
ATOM     15  C15 UNL     1       5.994 -16.307  24.941  0.00  0.00    +0.033 A 
ATOM     16  C16 UNL     1       5.652 -15.225  25.772  0.00  0.00    +0.196 A 
ATOM     17  O4  UNL     1       4.435 -14.905  25.873  0.00  0.00    -0.287 OA
ATOM     18  C17 UNL     1       4.993 -17.070  24.300  0.00  0.00    +0.012 A 
ATOM     19  C18 UNL     1       5.334 -18.134  23.464  0.00  0.00    +0.001 A 
ATOM     20  C19 UNL     1       6.672 -18.450  23.248  0.00  0.00    +0.001 A 
ATOM     21  C20 UNL     1       7.676 -17.706  23.868  0.00  0.00    +0.012 A 
ENDROOT
BRANCH   8  22
ATOM     22  N2  UNL     1       4.963 -13.090  27.690  0.00  0.00    -0.357 N 
ATOM     23  H10 UNL     1       4.646 -12.103  27.799  0.00  0.00    +0.142 HD
ATOM     24  H11 UNL     1       4.310 -13.844  28.001  0.00  0.00    +0.142 HD
ENDBRANCH   8  22
BRANCH  11  25
ATOM     25  N3  UNL     1      10.454 -14.390  26.804  0.00  0.00    -0.357 N 
ATOM     26  H12 UNL     1      11.187 -13.651  26.743  0.00  0.00    +0.142 HD
ATOM     27  H13 UNL     1      10.770 -15.373  26.959  0.00  0.00    +0.142 HD
ENDBRANCH  11  25
BRANCH   1  28
ATOM     28  C4  UNL     1       9.001 -10.178  30.050  0.00  0.00    +0.128 C 
BRANCH  28  29
ATOM     29  C3  UNL     1       9.045  -8.798  29.381  0.00  0.00    +0.021 C 
BRANCH  29  31
ATOM     30  C1  UNL     1      10.308  -8.702  27.198  0.00  0.00    +0.004 C 
ATOM     31  C2  UNL     1      10.397  -8.522  28.710  0.00  0.00    -0.002 C 
ENDBRANCH  29  31
ENDBRANCH  28  29
ENDBRANCH   1  28
TORSDOF 5
ENDMDL
MODEL 6
REMARK minimizedAffinity -6.24002123
REMARK minimizedRMSD -1
REMARK  Name = /home/tchapet/Post-Doc/ARTICLES-DOSSIERS-DES-ARTICLES-EN-REDACTION/NOUVELS-AXES-DE-RECHERCHE-A-REGARDER-URGEMMENT/ARTICLES-EN-REDACTIONS/ARTICLE_MVOTO/Paper2_JCIM/docking_rerun/ligands/18506.pdb
REMARK  6 active torsions:
REMARK  status: ('A' for Active; 'I' for Inactive)
REMARK    1  A    between atoms: C1_1  and  C2_2
REMARK    2  A    between atoms: C2_2  and  C3_3
REMARK    3  A    between atoms: C3_3  and  C4_4
REMARK    4  A    between atoms: C4_4  and  N1_5
REMARK    5  A    between atoms: C9_12  and  N2_13
REMARK    6  A    between atoms: C12_16  and  N3_17
REMARK                            x       y       z     vdW  Elec       q    Type
REMARK                         _______ _______ _______ _____ _____    ______ ____
ROOT
ATOM      1  N1  UNL     1       6.598  -2.601  -0.036  0.00  0.00    -0.275 N 
ATOM      2  C5  UNL     1       5.580  -1.715  -0.093  0.00  0.00    +0.264 A 
ATOM      3  O1  UNL     1       5.656  -0.600  -0.677  0.00  0.00    -0.267 OA
ATOM      4  C6  UNL     1       4.456  -2.223   0.546  0.00  0.00    +0.075 A 
ATOM      5  C7  UNL     1       4.797  -3.472   0.997  0.00  0.00    +0.075 A 
ATOM      6  C8  UNL     1       6.116  -3.681   0.617  0.00  0.00    +0.264 A 
ATOM      7  O2  UNL     1       6.785  -4.731   0.818  0.00  0.00    -0.267 OA
ATOM      8  C9  UNL     1       3.871  -4.316   1.616  0.00  0.00    +0.050 A 
ATOM      9  C10 UNL     1       2.545  -3.820   1.842  0.00  0.00    +0.056 A 
ATOM     10  C11 UNL     1       2.186  -2.506   1.366  0.00  0.00    +0.056 A 
ATOM     11  C12 UNL     1       3.161  -1.714   0.675  0.00  0.00    +0.050 A 
ATOM     12  C13 UNL     1       0.881  -2.008   1.636  0.00  0.00    +0.196 A 
ATOM     13  O3  UNL     1       0.565  -0.830   1.315  0.00  0.00    -0.287 OA
ATOM     14  C14 UNL     1      -0.074  -2.805   2.292  0.00  0.00    +0.033 A 
ATOM     15  C15 UNL     1       0.276  -4.090   2.757  0.00  0.00    +0.033 A 
ATOM     16  C16 UNL     1       1.582  -4.577   2.565  0.00  0.00    +0.196 A 
ATOM     17  O4  UNL     1       1.891  -5.690   3.074  0.00  0.00    -0.287 OA
ATOM     18  C17 UNL     1      -0.691  -4.867   3.433  0.00  0.00    +0.012 A 
ATOM     19  C18 UNL     1      -1.981  -4.377   3.637  0.00  0.00    +0.001 A 
ATOM     20  C19 UNL     1      -2.327  -3.109   3.178  0.00  0.00    +0.001 A 
ATOM     21  C20 UNL     1      -1.385  -2.325   2.513  0.00  0.00    +0.012 A 
ENDROOT
BRANCH   8  22
ATOM     22  N2  UNL     1       4.262  -5.654   1.954  0.00  0.00    -0.357 N 
ATOM     23  H10 UNL     1       5.211  -5.858   2.332  0.00  0.00    +0.142 HD
ATOM     24  H11 UNL     1       3.663  -6.468   1.687  0.00  0.00    +0.142 HD
ENDBRANCH   8  22
BRANCH  11  25
ATOM     25  N3  UNL     1       2.843  -0.452   0.072  0.00  0.00    -0.357 N 
ATOM     26  H12 UNL     1       3.521   0.340   0.090  0.00  0.00    +0.142 HD
ATOM     27  H13 UNL     1       1.993  -0.347  -0.528  0.00  0.00    +0.142 HD
ENDBRANCH  11  25
BRANCH   1  28
ATOM     28  C4  UNL     1       7.927  -2.461  -0.639  0.00  0.00    +0.128 C 
BRANCH  28  29
ATOM     29  C3  UNL     1       9.010  -2.290   0.434  0.00  0.00    +0.021 C 
BRANCH  29  31
ATOM     30  C1  UNL     1       8.545  -1.163   2.644  0.00  0.00    +0.004 C 
ATOM     31  C2  UNL     1       8.889  -0.951   1.173  0.00  0.00    -0.002 C 
ENDBRANCH  29  31
ENDBRANCH  28  29
ENDBRANCH   1  28
TORSDOF 5
ENDMDL
MODEL 7
REMARK minimizedAffinity -6.22928858
REMARK minimizedRMSD -1
REMARK  Name = /home/tchapet/Post-Doc/ARTICLES-DOSSIERS-DES-ARTICLES-EN-REDACTION/NOUVELS-AXES-DE-RECHERCHE-A-REGARDER-URGEMMENT/ARTICLES-EN-REDACTIONS/ARTICLE_MVOTO/Paper2_JCIM/docking_rerun/ligands/18506.pdb
REMARK  6 active torsions:
REMARK  status: ('A' for Active; 'I' for Inactive)
REMARK    1  A    between atoms: C1_1  and  C2_2
REMARK    2  A    between atoms: C2_2  and  C3_3
REMARK    3  A    between atoms: C3_3  and  C4_4
REMARK    4  A    between atoms: C4_4  and  N1_5
REMARK    5  A    between atoms: C9_12  and  N2_13
REMARK    6  A    between atoms: C12_16  and  N3_17
REMARK                            x       y       z     vdW  Elec       q    Type
REMARK                         _______ _______ _______ _____ _____    ______ ____
ROOT
ATOM      1  N1  UNL     1       2.345 -16.926  24.281  0.00  0.00    -0.275 N 
ATOM      2  C5  UNL     1       2.481 -15.910  25.162  0.00  0.00    +0.264 A 
ATOM      3  O1  UNL     1       1.507 -15.330  25.713  0.00  0.00    -0.267 OA
ATOM      4  C6  UNL     1       3.824 -15.634  25.384  0.00  0.00    +0.075 A 
ATOM      5  C7  UNL     1       4.535 -16.525  24.621  0.00  0.00    +0.075 A 
ATOM      6  C8  UNL     1       3.601 -17.311  23.961  0.00  0.00    +0.264 A 
ATOM      7  O2  UNL     1       3.859 -18.272  23.187  0.00  0.00    -0.267 OA
ATOM      8  C9  UNL     1       5.930 -16.593  24.666  0.00  0.00    +0.050 A 
ATOM      9  C10 UNL     1       6.630 -15.650  25.489  0.00  0.00    +0.056 A 
ATOM     10  C11 UNL     1       5.881 -14.715  26.293  0.00  0.00    +0.056 A 
ATOM     11  C12 UNL     1       4.448 -14.739  26.257  0.00  0.00    +0.050 A 
ATOM     12  C13 UNL     1       6.588 -13.755  27.070  0.00  0.00    +0.196 A 
ATOM     13  O3  UNL     1       5.965 -12.865  27.712  0.00  0.00    -0.287 OA
ATOM     14  C14 UNL     1       7.993 -13.757  27.117  0.00  0.00    +0.033 A 
ATOM     15  C15 UNL     1       8.725 -14.673  26.331  0.00  0.00    +0.033 A 
ATOM     16  C16 UNL     1       8.050 -15.585  25.499  0.00  0.00    +0.196 A 
ATOM     17  O4  UNL     1       8.733 -16.327  24.740  0.00  0.00    -0.287 OA
ATOM     18  C17 UNL     1      10.138 -14.646  26.375  0.00  0.00    +0.012 A 
ATOM     19  C18 UNL     1      10.807 -13.730  27.189  0.00  0.00    +0.001 A 
ATOM     20  C19 UNL     1      10.084 -12.827  27.963  0.00  0.00    +0.001 A 
ATOM     21  C20 UNL     1       8.690 -12.835  27.930  0.00  0.00    +0.012 A 
ENDROOT
BRANCH   8  22
ATOM     22  N2  UNL     1       6.604 -17.628  23.935  0.00  0.00    -0.357 N 
ATOM     23  H10 UNL     1       6.281 -17.913  22.986  0.00  0.00    +0.142 HD
ATOM     24  H11 UNL     1       7.330 -18.220  24.396  0.00  0.00    +0.142 HD
ENDBRANCH   8  22
BRANCH  11  25
ATOM     25  N3  UNL     1       3.641 -13.921  27.115  0.00  0.00    -0.357 N 
ATOM     26  H12 UNL     1       2.752 -13.497  26.773  0.00  0.00    +0.142 HD
ATOM     27  H13 UNL     1       3.844 -13.859  28.138  0.00  0.00    +0.142 HD
ENDBRANCH  11  25
BRANCH   1  28
ATOM     28  C4  UNL     1       1.096 -17.545  23.832  0.00  0.00    +0.128 C 
BRANCH  28  29
ATOM     29  C3  UNL     1       0.703 -17.058  22.431  0.00  0.00    +0.021 C 
BRANCH  29  31
ATOM     30  C1  UNL     1      -0.333 -14.785  22.796  0.00  0.00    +0.004 C 
ATOM     31  C2  UNL     1      -0.599 -16.245  22.444  0.00  0.00    -0.002 C 
ENDBRANCH  29  31
ENDBRANCH  28  29
ENDBRANCH   1  28
TORSDOF 5
ENDMDL
MODEL 8
REMARK minimizedAffinity -6.19476604
REMARK minimizedRMSD -1
REMARK  Name = /home/tchapet/Post-Doc/ARTICLES-DOSSIERS-DES-ARTICLES-EN-REDACTION/NOUVELS-AXES-DE-RECHERCHE-A-REGARDER-URGEMMENT/ARTICLES-EN-REDACTIONS/ARTICLE_MVOTO/Paper2_JCIM/docking_rerun/ligands/18506.pdb
REMARK  6 active torsions:
REMARK  status: ('A' for Active; 'I' for Inactive)
REMARK    1  A    between atoms: C1_1  and  C2_2
REMARK    2  A    between atoms: C2_2  and  C3_3
REMARK    3  A    between atoms: C3_3  and  C4_4
REMARK    4  A    between atoms: C4_4  and  N1_5
REMARK    5  A    between atoms: C9_12  and  N2_13
REMARK    6  A    between atoms: C12_16  and  N3_17
REMARK                            x       y       z     vdW  Elec       q    Type
REMARK                         _______ _______ _______ _____ _____    ______ ____
ROOT
ATOM      1  N1  UNL     1      -3.510 -18.022  12.787  0.00  0.00    -0.275 N 
ATOM      2  C5  UNL     1      -4.044 -17.539  13.931  0.00  0.00    +0.264 A 
ATOM      3  O1  UNL     1      -5.025 -18.068  14.519  0.00  0.00    -0.267 OA
ATOM      4  C6  UNL     1      -3.343 -16.421  14.362  0.00  0.00    +0.075 A 
ATOM      5  C7  UNL     1      -2.333 -16.222  13.455  0.00  0.00    +0.075 A 
ATOM      6  C8  UNL     1      -2.456 -17.225  12.503  0.00  0.00    +0.264 A 
ATOM      7  O2  UNL     1      -1.690 -17.407  11.519  0.00  0.00    -0.267 OA
ATOM      8  C9  UNL     1      -1.369 -15.225  13.624  0.00  0.00    +0.050 A 
ATOM      9  C10 UNL     1      -1.491 -14.346  14.751  0.00  0.00    +0.056 A 
ATOM     10  C11 UNL     1      -2.553 -14.557  15.706  0.00  0.00    +0.056 A 
ATOM     11  C12 UNL     1      -3.471 -15.642  15.514  0.00  0.00    +0.050 A 
ATOM     12  C13 UNL     1      -2.689 -13.652  16.794  0.00  0.00    +0.196 A 
ATOM     13  O3  UNL     1      -3.660 -13.752  17.595  0.00  0.00    -0.287 OA
ATOM     14  C14 UNL     1      -1.767 -12.608  16.986  0.00  0.00    +0.033 A 
ATOM     15  C15 UNL     1      -0.728 -12.402  16.053  0.00  0.00    +0.033 A 
ATOM     16  C16 UNL     1      -0.615 -13.241  14.929  0.00  0.00    +0.196 A 
ATOM     17  O4  UNL     1       0.266 -12.974  14.065  0.00  0.00    -0.287 OA
ATOM     18  C17 UNL     1       0.175 -11.334  16.250  0.00  0.00    +0.012 A 
ATOM     19  C18 UNL     1       0.052 -10.493  17.357  0.00  0.00    +0.001 A 
ATOM     20  C19 UNL     1      -0.972 -10.696  18.277  0.00  0.00    +0.001 A 
ATOM     21  C20 UNL     1      -1.878 -11.742  18.097  0.00  0.00    +0.012 A 
ENDROOT
BRANCH   8  22
ATOM     22  N2  UNL     1      -0.272 -15.149  12.703  0.00  0.00    -0.357 N 
ATOM     23  H10 UNL     1      -0.414 -15.313  11.684  0.00  0.00    +0.142 HD
ATOM     24  H11 UNL     1       0.711 -15.081  13.050  0.00  0.00    +0.142 HD
ENDBRANCH   8  22
BRANCH  11  25
ATOM     25  N3  UNL     1      -4.474 -15.982  16.481  0.00  0.00    -0.357 N 
ATOM     26  H12 UNL     1      -5.420 -16.305  16.184  0.00  0.00    +0.142 HD
ATOM     27  H13 UNL     1      -4.233 -16.061  17.494  0.00  0.00    +0.142 HD
ENDBRANCH  11  25
BRANCH   1  28
ATOM     28  C4  UNL     1      -3.929 -19.218  12.051  0.00  0.00    +0.128 C 
BRANCH  28  29
ATOM     29  C3  UNL     1      -5.082 -18.905  11.088  0.00  0.00    +0.021 C 
BRANCH  29  31
ATOM     30  C1  UNL     1      -4.562 -17.174   9.326  0.00  0.00    +0.004 C 
ATOM     31  C2  UNL     1      -4.591 -18.663   9.654  0.00  0.00    -0.002 C 
ENDBRANCH  29  31
ENDBRANCH  28  29
ENDBRANCH   1  28
TORSDOF 5
ENDMDL
MODEL 9
REMARK minimizedAffinity -6.1495738
REMARK minimizedRMSD -1
REMARK  Name = /home/tchapet/Post-Doc/ARTICLES-DOSSIERS-DES-ARTICLES-EN-REDACTION/NOUVELS-AXES-DE-RECHERCHE-A-REGARDER-URGEMMENT/ARTICLES-EN-REDACTIONS/ARTICLE_MVOTO/Paper2_JCIM/docking_rerun/ligands/18506.pdb
REMARK  6 active torsions:
REMARK  status: ('A' for Active; 'I' for Inactive)
REMARK    1  A    between atoms: C1_1  and  C2_2
REMARK    2  A    between atoms: C2_2  and  C3_3
REMARK    3  A    between atoms: C3_3  and  C4_4
REMARK    4  A    between atoms: C4_4  and  N1_5
REMARK    5  A    between atoms: C9_12  and  N2_13
REMARK    6  A    between atoms: C12_16  and  N3_17
REMARK                            x       y       z     vdW  Elec       q    Type
REMARK                         _______ _______ _______ _____ _____    ______ ____
ROOT
ATOM      1  N1  UNL     1      -2.028 -13.767  16.213  0.00  0.00    -0.275 N 
ATOM      2  C5  UNL     1      -1.756 -14.164  14.950  0.00  0.00    +0.264 A 
ATOM      3  O1  UNL     1      -2.210 -13.589  13.925  0.00  0.00    -0.267 OA
ATOM      4  C6  UNL     1      -0.896 -15.255  14.958  0.00  0.00    +0.075 A 
ATOM      5  C7  UNL     1      -0.622 -15.524  16.274  0.00  0.00    +0.075 A 
ATOM      6  C8  UNL     1      -1.324 -14.589  17.022  0.00  0.00    +0.264 A 
ATOM      7  O2  UNL     1      -1.304 -14.481  18.278  0.00  0.00    -0.267 OA
ATOM      8  C9  UNL     1       0.289 -16.513  16.656  0.00  0.00    +0.050 A 
ATOM      9  C10 UNL     1       0.895 -17.310  15.629  0.00  0.00    +0.056 A 
ATOM     10  C11 UNL     1       0.606 -17.026  14.244  0.00  0.00    +0.056 A 
ATOM     11  C12 UNL     1      -0.283 -15.951  13.913  0.00  0.00    +0.050 A 
ATOM     12  C13 UNL     1       1.179 -17.852  13.238  0.00  0.00    +0.196 A 
ATOM     13  O3  UNL     1       0.876 -17.689  12.024  0.00  0.00    -0.287 OA
ATOM     14  C14 UNL     1       2.071 -18.886  13.573  0.00  0.00    +0.033 A 
ATOM     15  C15 UNL     1       2.353 -19.164  14.928  0.00  0.00    +0.033 A 
ATOM     16  C16 UNL     1       1.743 -18.407  15.945  0.00  0.00    +0.196 A 
ATOM     17  O4  UNL     1       1.943 -18.739  17.146  0.00  0.00    -0.287 OA
ATOM     18  C17 UNL     1       3.234 -20.222  15.246  0.00  0.00    +0.012 A 
ATOM     19  C18 UNL     1       3.827 -20.983  14.238  0.00  0.00    +0.001 A 
ATOM     20  C19 UNL     1       3.547 -20.709  12.902  0.00  0.00    +0.001 A 
ATOM     21  C20 UNL     1       2.676 -19.672  12.567  0.00  0.00    +0.012 A 
ENDROOT
BRANCH   8  22
ATOM     22  N2  UNL     1       0.621 -16.661  18.043  0.00  0.00    -0.357 N 
ATOM     23  H10 UNL     1      -0.107 -16.567  18.783  0.00  0.00    +0.142 HD
ATOM     24  H11 UNL     1       1.618 -16.711  18.350  0.00  0.00    +0.142 HD
ENDBRANCH   8  22
BRANCH  11  25
ATOM     25  N3  UNL     1      -0.523 -15.537  12.561  0.00  0.00    -0.357 N 
ATOM     26  H12 UNL     1      -1.470 -15.228  12.252  0.00  0.00    +0.142 HD
ATOM     27  H13 UNL     1       0.273 -15.389  11.900  0.00  0.00    +0.142 HD
ENDBRANCH  11  25
BRANCH   1  28
ATOM     28  C4  UNL     1      -2.847 -12.622  16.622  0.00  0.00    +0.128 C 
BRANCH  28  29
ATOM     29  C3  UNL     1      -2.044 -11.315  16.567  0.00  0.00    +0.021 C 
BRANCH  29  31
ATOM     30  C1  UNL     1      -0.085 -10.190  17.693  0.00  0.00    +0.004 C 
ATOM     31  C2  UNL     1      -1.362 -10.996  17.905  0.00  0.00    -0.002 C 
ENDBRANCH  29  31
ENDBRANCH  28  29
ENDBRANCH   1  28
TORSDOF 5
ENDMDL
