MODEL 1
REMARK minimizedAffinity -6.68408489
REMARK minimizedRMSD -1
REMARK  Name = /home/tchapet/Post-Doc/ARTICLES-DOSSIERS-DES-ARTICLES-EN-REDACTION/NOUVELS-AXES-DE-RECHERCHE-A-REGARDER-URGEMMENT/ARTICLES-EN-REDACTIONS/ARTICLE_MVOTO/Paper2_JCIM/docking_rerun/ligands/18506.pdb
REMARK  6 active torsions:
REMARK  status: ('A' for Active; 'I' for Inactive)
REMARK    1  A    between atoms: C1_1  and  C2_2
REMARK    2  A    between atoms: C2_2  and  C3_3
REMARK    3  A    between atoms: C3_3  and  C4_4
REMARK    4  A    between atoms: C4_4  and  N1_5
REMARK    5  A    between atoms: C9_12  and  N2_13
REMARK    6  A    between atoms: C12_16  and  N3_17
REMARK                            x       y       z     vdW  Elec       q    Type
REMARK                         _______ _______ _______ _____ _____    ______ ____
ROOT
ATOM      1  N1  UNL     1      18.362   6.808  14.155  0.00  0.00    -0.275 N 
ATOM      2  C5  UNL     1      18.064   7.506  13.036  0.00  0.00    +0.264 A 
ATOM      3  O1  UNL     1      18.460   8.683  12.823  0.00  0.00    -0.267 OA
ATOM      4  C6  UNL     1      17.303   6.733  12.169  0.00  0.00    +0.075 A 
ATOM      5  C7  UNL     1      17.143   5.513  12.774  0.00  0.00    +0.075 A 
ATOM      6  C8  UNL     1      17.811   5.585  13.989  0.00  0.00    +0.264 A 
ATOM      7  O2  UNL     1      17.925   4.650  14.825  0.00  0.00    -0.267 OA
ATOM      8  C9  UNL     1      16.496   4.449  12.140  0.00  0.00    +0.050 A 
ATOM      9  C10 UNL     1      15.927   4.676  10.843  0.00  0.00    +0.056 A 
ATOM     10  C11 UNL     1      16.098   5.959  10.206  0.00  0.00    +0.056 A 
ATOM     11  C12 UNL     1      16.832   6.991  10.879  0.00  0.00    +0.050 A 
ATOM     12  C13 UNL     1      15.490   6.186   8.940  0.00  0.00    +0.196 A 
ATOM     13  O3  UNL     1      15.542   7.324   8.397  0.00  0.00    -0.287 OA
ATOM     14  C14 UNL     1      14.794   5.158   8.278  0.00  0.00    +0.033 A 
ATOM     15  C15 UNL     1      14.628   3.902   8.901  0.00  0.00    +0.033 A 
ATOM     16  C16 UNL     1      15.158   3.677  10.185  0.00  0.00    +0.196 A 
ATOM     17  O4  UNL     1      14.913   2.577  10.753  0.00  0.00    -0.287 OA
ATOM     18  C17 UNL     1      13.906   2.890   8.231  0.00  0.00    +0.012 A 
ATOM     19  C18 UNL     1      13.367   3.119   6.964  0.00  0.00    +0.001 A 
ATOM     20  C19 UNL     1      13.531   4.358   6.350  0.00  0.00    +0.001 A 
ATOM     21  C20 UNL     1      14.236   5.372   6.999  0.00  0.00    +0.012 A 
ENDROOT
BRANCH   8  22
ATOM     22  N2  UNL     1      16.469   3.165  12.779  0.00  0.00    -0.357 N 
ATOM     23  H10 UNL     1      16.331   3.081  13.809  0.00  0.00    +0.142 HD
ATOM     24  H11 UNL     1      16.739   2.303  12.256  0.00  0.00    +0.142 HD
ENDBRANCH   8  22
BRANCH  11  25
ATOM     25  N3  UNL     1      17.141   8.247  10.259  0.00  0.00    -0.357 N 
ATOM     26  H12 UNL     1      17.131   9.134  10.807  0.00  0.00    +0.142 HD
ATOM     27  H13 UNL     1      17.531   8.281   9.290  0.00  0.00    +0.142 HD
ENDBRANCH  11  25
BRANCH   1  28
ATOM     28  C4  UNL     1      19.190   7.252  15.279  0.00  0.00    +0.128 C 
BRANCH  28  29
ATOM     29  C3  UNL     1      18.333   7.574  16.511  0.00  0.00    +0.021 C 
BRANCH  29  31
ATOM     30  C1  UNL     1      16.032   8.548  16.150  0.00  0.00    +0.004 C 
ATOM     31  C2  UNL     1      17.515   8.860  16.329  0.00  0.00    -0.002 C 
ENDBRANCH  29  31
ENDBRANCH  28  29
ENDBRANCH   1  28
TORSDOF 5
ENDMDL
MODEL 2
REMARK minimizedAffinity -6.65049267
REMARK minimizedRMSD -1
REMARK  Name = /home/tchapet/Post-Doc/ARTICLES-DOSSIERS-DES-ARTICLES-EN-REDACTION/NOUVELS-AXES-DE-RECHERCHE-A-REGARDER-URGEMMENT/ARTICLES-EN-REDACTIONS/ARTICLE_MVOTO/Paper2_JCIM/docking_rerun/ligands/18506.pdb
REMARK  6 active torsions:
REMARK  status: ('A' for Active; 'I' for Inactive)
REMARK    1  A    between atoms: C1_1  and  C2_2
REMARK    2  A    between atoms: C2_2  and  C3_3
REMARK    3  A    between atoms: C3_3  and  C4_4
REMARK    4  A    between atoms: C4_4  and  N1_5
REMARK    5  A    between atoms: C9_12  and  N2_13
REMARK    6  A    between atoms: C12_16  and  N3_17
REMARK                            x       y       z     vdW  Elec       q    Type
REMARK                         _______ _______ _______ _____ _____    ______ ____
ROOT
ATOM      1  N1  UNL     1     -18.952 -30.912  11.357  0.00  0.00    -0.275 N 
ATOM      2  C5  UNL     1     -18.273 -31.392  10.291  0.00  0.00    +0.264 A 
ATOM      3  O1  UNL     1     -17.144 -31.946  10.375  0.00  0.00    -0.267 OA
ATOM      4  C6  UNL     1     -19.007 -31.213   9.126  0.00  0.00    +0.075 A 
ATOM      5  C7  UNL     1     -20.185 -30.616   9.496  0.00  0.00    +0.075 A 
ATOM      6  C8  UNL     1     -20.127 -30.451  10.873  0.00  0.00    +0.264 A 
ATOM      7  O2  UNL     1     -21.037 -29.966  11.598  0.00  0.00    -0.267 OA
ATOM      8  C9  UNL     1     -21.210 -30.365   8.580  0.00  0.00    +0.050 A 
ATOM      9  C10 UNL     1     -20.982 -30.686   7.201  0.00  0.00    +0.056 A 
ATOM     10  C11 UNL     1     -19.743 -31.316   6.813  0.00  0.00    +0.056 A 
ATOM     11  C12 UNL     1     -18.757 -31.612   7.810  0.00  0.00    +0.050 A 
ATOM     12  C13 UNL     1     -19.512 -31.588   5.436  0.00  0.00    +0.196 A 
ATOM     13  O3  UNL     1     -18.403 -32.054   5.051  0.00  0.00    -0.287 OA
ATOM     14  C14 UNL     1     -20.497 -31.317   4.470  0.00  0.00    +0.033 A 
ATOM     15  C15 UNL     1     -21.709 -30.702   4.850  0.00  0.00    +0.033 A 
ATOM     16  C16 UNL     1     -21.933 -30.357   6.195  0.00  0.00    +0.196 A 
ATOM     17  O4  UNL     1     -22.984 -29.724   6.488  0.00  0.00    -0.287 OA
ATOM     18  C17 UNL     1     -22.678 -30.417   3.862  0.00  0.00    +0.012 A 
ATOM     19  C18 UNL     1     -22.449 -30.744   2.525  0.00  0.00    +0.001 A 
ATOM     20  C19 UNL     1     -21.253 -31.352   2.150  0.00  0.00    +0.001 A 
ATOM     21  C20 UNL     1     -20.282 -31.636   3.110  0.00  0.00    +0.012 A 
ENDROOT
BRANCH   8  22
ATOM     22  N2  UNL     1     -22.461 -29.849   9.055  0.00  0.00    -0.357 N 
ATOM     23  H10 UNL     1     -22.495 -29.128   9.806  0.00  0.00    +0.142 HD
ATOM     24  H11 UNL     1     -23.363 -30.292   8.770  0.00  0.00    +0.142 HD
ENDBRANCH   8  22
BRANCH  11  25
ATOM     25  N3  UNL     1     -17.557 -32.341   7.516  0.00  0.00    -0.357 N 
ATOM     26  H12 UNL     1     -16.653 -32.096   7.974  0.00  0.00    +0.142 HD
ATOM     27  H13 UNL     1     -17.593 -33.225   6.959  0.00  0.00    +0.142 HD
ENDBRANCH  11  25
BRANCH   1  28
ATOM     28  C4  UNL     1     -18.542 -30.964  12.763  0.00  0.00    +0.128 C 
BRANCH  28  29
ATOM     29  C3  UNL     1     -17.814 -29.679  13.179  0.00  0.00    +0.021 C 
BRANCH  29  31
ATOM     30  C1  UNL     1     -15.788 -31.108  13.653  0.00  0.00    +0.004 C 
ATOM     31  C2  UNL     1     -16.290 -29.804  13.041  0.00  0.00    -0.002 C 
ENDBRANCH  29  31
ENDBRANCH  28  29
ENDBRANCH   1  28
TORSDOF 5
ENDMDL
MODEL 3
REMARK minimizedAffinity -6.48309135
REMARK minimizedRMSD -1
REMARK  Name = /home/tchapet/Post-Doc/ARTICLES-DOSSIERS-DES-ARTICLES-EN-REDACTION/NOUVELS-AXES-DE-RECHERCHE-A-REGARDER-URGEMMENT/ARTICLES-EN-REDACTIONS/ARTICLE_MVOTO/Paper2_JCIM/docking_rerun/ligands/18506.pdb
REMARK  6 active torsions:
REMARK  status: ('A' for Active; 'I' for Inactive)
REMARK    1  A    between atoms: C1_1  and  C2_2
REMARK    2  A    between atoms: C2_2  and  C3_3
REMARK    3  A    between atoms: C3_3  and  C4_4
REMARK    4  A    between atoms: C4_4  and  N1_5
REMARK    5  A    between atoms: C9_12  and  N2_13
REMARK    6  A    between atoms: C12_16  and  N3_17
REMARK                            x       y       z     vdW  Elec       q    Type
REMARK                         _______ _______ _______ _____ _____    ______ ____
ROOT
ATOM      1  N1  UNL     1      -1.243 -10.177   6.624  0.00  0.00    -0.275 N 
ATOM      2  C5  UNL     1      -0.549  -9.051   6.902  0.00  0.00    +0.264 A 
ATOM      3  O1  UNL     1      -0.215  -8.707   8.067  0.00  0.00    -0.267 OA
ATOM      4  C6  UNL     1      -0.241  -8.367   5.732  0.00  0.00    +0.075 A 
ATOM      5  C7  UNL     1      -0.754  -9.112   4.701  0.00  0.00    +0.075 A 
ATOM      6  C8  UNL     1      -1.356 -10.222   5.278  0.00  0.00    +0.264 A 
ATOM      7  O2  UNL     1      -1.913 -11.166   4.657  0.00  0.00    -0.267 OA
ATOM      8  C9  UNL     1      -0.553  -8.764   3.363  0.00  0.00    +0.050 A 
ATOM      9  C10 UNL     1       0.156  -7.551   3.076  0.00  0.00    +0.056 A 
ATOM     10  C11 UNL     1       0.696  -6.769   4.161  0.00  0.00    +0.056 A 
ATOM     11  C12 UNL     1       0.517  -7.215   5.512  0.00  0.00    +0.050 A 
ATOM     12  C13 UNL     1       1.358  -5.545   3.866  0.00  0.00    +0.196 A 
ATOM     13  O3  UNL     1       1.762  -4.792   4.795  0.00  0.00    -0.287 OA
ATOM     14  C14 UNL     1       1.551  -5.131   2.535  0.00  0.00    +0.033 A 
ATOM     15  C15 UNL     1       1.023  -5.896   1.474  0.00  0.00    +0.033 A 
ATOM     16  C16 UNL     1       0.302  -7.074   1.744  0.00  0.00    +0.196 A 
ATOM     17  O4  UNL     1      -0.237  -7.685   0.780  0.00  0.00    -0.287 OA
ATOM     18  C17 UNL     1       1.208  -5.452   0.145  0.00  0.00    +0.012 A 
ATOM     19  C18 UNL     1       1.908  -4.276  -0.122  0.00  0.00    +0.001 A 
ATOM     20  C19 UNL     1       2.429  -3.521   0.926  0.00  0.00    +0.001 A 
ATOM     21  C20 UNL     1       2.253  -3.940   2.244  0.00  0.00    +0.012 A 
ENDROOT
BRANCH   8  22
ATOM     22  N2  UNL     1      -1.012  -9.650   2.333  0.00  0.00    -0.357 N 
ATOM     23  H10 UNL     1      -1.923 -10.149   2.420  0.00  0.00    +0.142 HD
ATOM     24  H11 UNL     1      -0.379  -9.933   1.551  0.00  0.00    +0.142 HD
ENDBRANCH   8  22
BRANCH  11  25
ATOM     25  N3  UNL     1       1.126  -6.554   6.630  0.00  0.00    -0.357 N 
ATOM     26  H12 UNL     1       0.623  -6.460   7.539  0.00  0.00    +0.142 HD
ATOM     27  H13 UNL     1       2.137  -6.289   6.607  0.00  0.00    +0.142 HD
ENDBRANCH  11  25
BRANCH   1  28
ATOM     28  C4  UNL     1      -1.700 -11.191   7.578  0.00  0.00    +0.128 C 
BRANCH  28  29
ATOM     29  C3  UNL     1      -0.682 -12.331   7.710  0.00  0.00    +0.021 C 
BRANCH  29  31
ATOM     30  C1  UNL     1      -1.349 -14.285   6.257  0.00  0.00    +0.004 C 
ATOM     31  C2  UNL     1      -1.350 -13.713   7.671  0.00  0.00    -0.002 C 
ENDBRANCH  29  31
ENDBRANCH  28  29
ENDBRANCH   1  28
TORSDOF 5
ENDMDL
MODEL 4
REMARK minimizedAffinity -6.42289591
REMARK minimizedRMSD -1
REMARK  Name = /home/tchapet/Post-Doc/ARTICLES-DOSSIERS-DES-ARTICLES-EN-REDACTION/NOUVELS-AXES-DE-RECHERCHE-A-REGARDER-URGEMMENT/ARTICLES-EN-REDACTIONS/ARTICLE_MVOTO/Paper2_JCIM/docking_rerun/ligands/18506.pdb
REMARK  6 active torsions:
REMARK  status: ('A' for Active; 'I' for Inactive)
REMARK    1  A    between atoms: C1_1  and  C2_2
REMARK    2  A    between atoms: C2_2  and  C3_3
REMARK    3  A    between atoms: C3_3  and  C4_4
REMARK    4  A    between atoms: C4_4  and  N1_5
REMARK    5  A    between atoms: C9_12  and  N2_13
REMARK    6  A    between atoms: C12_16  and  N3_17
REMARK                            x       y       z     vdW  Elec       q    Type
REMARK                         _______ _______ _______ _____ _____    ______ ____
ROOT
ATOM      1  N1  UNL     1      18.775   6.474  14.111  0.00  0.00    -0.275 N 
ATOM      2  C5  UNL     1      18.176   5.278  13.920  0.00  0.00    +0.264 A 
ATOM      3  O1  UNL     1      18.222   4.334  14.754  0.00  0.00    -0.267 OA
ATOM      4  C6  UNL     1      17.493   5.263  12.711  0.00  0.00    +0.075 A 
ATOM      5  C7  UNL     1      17.670   6.501  12.149  0.00  0.00    +0.075 A 
ATOM      6  C8  UNL     1      18.454   7.227  13.035  0.00  0.00    +0.264 A 
ATOM      7  O2  UNL     1      18.810   8.428  12.894  0.00  0.00    -0.267 OA
ATOM      8  C9  UNL     1      17.043   6.872  10.957  0.00  0.00    +0.050 A 
ATOM      9  C10 UNL     1      16.248   5.893  10.275  0.00  0.00    +0.056 A 
ATOM     10  C11 UNL     1      16.061   4.591  10.867  0.00  0.00    +0.056 A 
ATOM     11  C12 UNL     1      16.673   4.293  12.129  0.00  0.00    +0.050 A 
ATOM     12  C13 UNL     1      15.306   3.615  10.159  0.00  0.00    +0.196 A 
ATOM     13  O3  UNL     1      15.200   2.438  10.604  0.00  0.00    -0.287 OA
ATOM     14  C14 UNL     1      14.688   3.927   8.935  0.00  0.00    +0.033 A 
ATOM     15  C15 UNL     1      14.870   5.201   8.357  0.00  0.00    +0.033 A 
ATOM     16  C16 UNL     1      15.671   6.161   9.003  0.00  0.00    +0.196 A 
ATOM     17  O4  UNL     1      15.891   7.256   8.415  0.00  0.00    -0.287 OA
ATOM     18  C17 UNL     1      14.260   5.489   7.115  0.00  0.00    +0.012 A 
ATOM     19  C18 UNL     1      13.479   4.531   6.467  0.00  0.00    +0.001 A 
ATOM     20  C19 UNL     1      13.299   3.275   7.039  0.00  0.00    +0.001 A 
ATOM     21  C20 UNL     1      13.898   2.970   8.261  0.00  0.00    +0.012 A 
ENDROOT
BRANCH   8  22
ATOM     22  N2  UNL     1      17.174   8.222  10.488  0.00  0.00    -0.357 N 
ATOM     23  H10 UNL     1      18.078   8.733  10.568  0.00  0.00    +0.142 HD
ATOM     24  H11 UNL     1      16.333   8.770  10.199  0.00  0.00    +0.142 HD
ENDBRANCH   8  22
BRANCH  11  25
ATOM     25  N3  UNL     1      16.435   3.065  12.831  0.00  0.00    -0.357 N 
ATOM     26  H12 UNL     1      17.199   2.591  13.360  0.00  0.00    +0.142 HD
ATOM     27  H13 UNL     1      15.463   2.702  12.956  0.00  0.00    +0.142 HD
ENDBRANCH  11  25
BRANCH   1  28
ATOM     28  C4  UNL     1      19.540   6.902  15.285  0.00  0.00    +0.128 C 
BRANCH  28  29
ATOM     29  C3  UNL     1      18.618   7.192  16.477  0.00  0.00    +0.021 C 
BRANCH  29  31
ATOM     30  C1  UNL     1      16.468   8.456  16.089  0.00  0.00    +0.004 C 
ATOM     31  C2  UNL     1      17.961   8.575  16.379  0.00  0.00    -0.002 C 
ENDBRANCH  29  31
ENDBRANCH  28  29
ENDBRANCH   1  28
TORSDOF 5
ENDMDL
MODEL 5
REMARK minimizedAffinity -6.40754414
REMARK minimizedRMSD -1
REMARK  Name = /home/tchapet/Post-Doc/ARTICLES-DOSSIERS-DES-ARTICLES-EN-REDACTION/NOUVELS-AXES-DE-RECHERCHE-A-REGARDER-URGEMMENT/ARTICLES-EN-REDACTIONS/ARTICLE_MVOTO/Paper2_JCIM/docking_rerun/ligands/18506.pdb
REMARK  6 active torsions:
REMARK  status: ('A' for Active; 'I' for Inactive)
REMARK    1  A    between atoms: C1_1  and  C2_2
REMARK    2  A    between atoms: C2_2  and  C3_3
REMARK    3  A    between atoms: C3_3  and  C4_4
REMARK    4  A    between atoms: C4_4  and  N1_5
REMARK    5  A    between atoms: C9_12  and  N2_13
REMARK    6  A    between atoms: C12_16  and  N3_17
REMARK                            x       y       z     vdW  Elec       q    Type
REMARK                         _______ _______ _______ _____ _____    ______ ____
ROOT
ATOM      1  N1  UNL     1     -18.827 -31.169  11.406  0.00  0.00    -0.275 N 
ATOM      2  C5  UNL     1     -19.991 -30.651  10.955  0.00  0.00    +0.264 A 
ATOM      3  O1  UNL     1     -20.823 -30.058  11.693  0.00  0.00    -0.267 OA
ATOM      4  C6  UNL     1     -20.110 -30.841   9.584  0.00  0.00    +0.075 A 
ATOM      5  C7  UNL     1     -18.968 -31.485   9.181  0.00  0.00    +0.075 A 
ATOM      6  C8  UNL     1     -18.195 -31.665  10.319  0.00  0.00    +0.264 A 
ATOM      7  O2  UNL     1     -17.050 -32.191  10.358  0.00  0.00    -0.267 OA
ATOM      8  C9  UNL     1     -18.707 -31.760   7.836  0.00  0.00    +0.050 A 
ATOM      9  C10 UNL     1     -19.705 -31.413   6.866  0.00  0.00    +0.056 A 
ATOM     10  C11 UNL     1     -20.905 -30.734   7.291  0.00  0.00    +0.056 A 
ATOM     11  C12 UNL     1     -21.084 -30.416   8.677  0.00  0.00    +0.050 A 
ATOM     12  C13 UNL     1     -21.906 -30.436   6.325  0.00  0.00    +0.196 A 
ATOM     13  O3  UNL     1     -23.006 -29.927   6.677  0.00  0.00    -0.287 OA
ATOM     14  C14 UNL     1     -21.708 -30.729   4.964  0.00  0.00    +0.033 A 
ATOM     15  C15 UNL     1     -20.533 -31.393   4.548  0.00  0.00    +0.033 A 
ATOM     16  C16 UNL     1     -19.560 -31.762   5.495  0.00  0.00    +0.196 A 
ATOM     17  O4  UNL     1     -18.566 -32.436   5.105  0.00  0.00    -0.287 OA
ATOM     18  C17 UNL     1     -20.361 -31.699   3.180  0.00  0.00    +0.012 A 
ATOM     19  C18 UNL     1     -21.334 -31.346   2.244  0.00  0.00    +0.001 A 
ATOM     20  C19 UNL     1     -22.493 -30.692   2.655  0.00  0.00    +0.001 A 
ATOM     21  C20 UNL     1     -22.683 -30.386   4.002  0.00  0.00    +0.012 A 
ENDROOT
BRANCH   8  22
ATOM     22  N2  UNL     1     -17.441 -32.326   7.471  0.00  0.00    -0.357 N 
ATOM     23  H10 UNL     1     -16.990 -33.058   8.060  0.00  0.00    +0.142 HD
ATOM     24  H11 UNL     1     -16.875 -31.912   6.697  0.00  0.00    +0.142 HD
ENDBRANCH   8  22
BRANCH  11  25
ATOM     25  N3  UNL     1     -22.193 -29.641   9.154  0.00  0.00    -0.357 N 
ATOM     26  H12 UNL     1     -22.650 -29.860  10.065  0.00  0.00    +0.142 HD
ATOM     27  H13 UNL     1     -22.466 -28.752   8.677  0.00  0.00    +0.142 HD
ENDBRANCH  11  25
BRANCH   1  28
ATOM     28  C4  UNL     1     -18.310 -31.120  12.776  0.00  0.00    +0.128 C 
BRANCH  28  29
ATOM     29  C3  UNL     1     -17.664 -29.762  13.081  0.00  0.00    +0.021 C 
BRANCH  29  31
ATOM     30  C1  UNL     1     -15.597 -31.162  13.457  0.00  0.00    +0.004 C 
ATOM     31  C2  UNL     1     -16.133 -29.814  12.986  0.00  0.00    -0.002 C 
ENDBRANCH  29  31
ENDBRANCH  28  29
ENDBRANCH   1  28
TORSDOF 5
ENDMDL
MODEL 6
REMARK minimizedAffinity -6.38617611
REMARK minimizedRMSD -1
REMARK  Name = /home/tchapet/Post-Doc/ARTICLES-DOSSIERS-DES-ARTICLES-EN-REDACTION/NOUVELS-AXES-DE-RECHERCHE-A-REGARDER-URGEMMENT/ARTICLES-EN-REDACTIONS/ARTICLE_MVOTO/Paper2_JCIM/docking_rerun/ligands/18506.pdb
REMARK  6 active torsions:
REMARK  status: ('A' for Active; 'I' for Inactive)
REMARK    1  A    between atoms: C1_1  and  C2_2
REMARK    2  A    between atoms: C2_2  and  C3_3
REMARK    3  A    between atoms: C3_3  and  C4_4
REMARK    4  A    between atoms: C4_4  and  N1_5
REMARK    5  A    between atoms: C9_12  and  N2_13
REMARK    6  A    between atoms: C12_16  and  N3_17
REMARK                            x       y       z     vdW  Elec       q    Type
REMARK                         _______ _______ _______ _____ _____    ______ ____
ROOT
ATOM      1  N1  UNL     1      -1.163 -10.287   6.577  0.00  0.00    -0.275 N 
ATOM      2  C5  UNL     1      -1.255 -10.356   5.230  0.00  0.00    +0.264 A 
ATOM      3  O1  UNL     1      -1.851 -11.282   4.618  0.00  0.00    -0.267 OA
ATOM      4  C6  UNL     1      -0.637  -9.259   4.643  0.00  0.00    +0.075 A 
ATOM      5  C7  UNL     1      -0.162  -8.485   5.671  0.00  0.00    +0.075 A 
ATOM      6  C8  UNL     1      -0.507  -9.137   6.847  0.00  0.00    +0.264 A 
ATOM      7  O2  UNL     1      -0.277  -8.724   8.015  0.00  0.00    -0.267 OA
ATOM      8  C9  UNL     1       0.446  -7.246   5.448  0.00  0.00    +0.050 A 
ATOM      9  C10 UNL     1       0.634  -6.816   4.093  0.00  0.00    +0.056 A 
ATOM     10  C11 UNL     1       0.133  -7.631   3.012  0.00  0.00    +0.056 A 
ATOM     11  C12 UNL     1      -0.545  -8.859   3.308  0.00  0.00    +0.050 A 
ATOM     12  C13 UNL     1       0.365  -7.215   1.672  0.00  0.00    +0.196 A 
ATOM     13  O3  UNL     1       0.022  -7.948   0.704  0.00  0.00    -0.287 OA
ATOM     14  C14 UNL     1       1.008  -5.995   1.395  0.00  0.00    +0.033 A 
ATOM     15  C15 UNL     1       1.498  -5.199   2.452  0.00  0.00    +0.033 A 
ATOM     16  C16 UNL     1       1.344  -5.623   3.784  0.00  0.00    +0.196 A 
ATOM     17  O4  UNL     1       1.874  -4.936   4.701  0.00  0.00    -0.287 OA
ATOM     18  C17 UNL     1       2.161  -3.987   2.153  0.00  0.00    +0.012 A 
ATOM     19  C18 UNL     1       2.328  -3.574   0.831  0.00  0.00    +0.001 A 
ATOM     20  C19 UNL     1       1.845  -4.361  -0.211  0.00  0.00    +0.001 A 
ATOM     21  C20 UNL     1       1.192  -5.562   0.063  0.00  0.00    +0.012 A 
ENDROOT
BRANCH   8  22
ATOM     22  N2  UNL     1       0.810  -6.433   6.572  0.00  0.00    -0.357 N 
ATOM     23  H10 UNL     1       1.213  -6.858   7.435  0.00  0.00    +0.142 HD
ATOM     24  H11 UNL     1       0.539  -5.426   6.611  0.00  0.00    +0.142 HD
ENDBRANCH   8  22
BRANCH  11  25
ATOM     25  N3  UNL     1      -1.171  -9.658   2.294  0.00  0.00    -0.357 N 
ATOM     26  H12 UNL     1      -1.147 -10.699   2.338  0.00  0.00    +0.142 HD
ATOM     27  H13 UNL     1      -1.792  -9.219   1.577  0.00  0.00    +0.142 HD
ENDBRANCH  11  25
BRANCH   1  28
ATOM     28  C4  UNL     1      -1.736 -11.221   7.550  0.00  0.00    +0.128 C 
BRANCH  28  29
ATOM     29  C3  UNL     1      -0.750 -12.347   7.889  0.00  0.00    +0.021 C 
BRANCH  29  31
ATOM     30  C1  UNL     1      -1.462 -14.264   6.409  0.00  0.00    +0.004 C 
ATOM     31  C2  UNL     1      -1.411 -13.731   7.838  0.00  0.00    -0.002 C 
ENDBRANCH  29  31
ENDBRANCH  28  29
ENDBRANCH   1  28
TORSDOF 5
ENDMDL
MODEL 7
REMARK minimizedAffinity -6.24914169
REMARK minimizedRMSD -1
REMARK  Name = /home/tchapet/Post-Doc/ARTICLES-DOSSIERS-DES-ARTICLES-EN-REDACTION/NOUVELS-AXES-DE-RECHERCHE-A-REGARDER-URGEMMENT/ARTICLES-EN-REDACTIONS/ARTICLE_MVOTO/Paper2_JCIM/docking_rerun/ligands/18506.pdb
REMARK  6 active torsions:
REMARK  status: ('A' for Active; 'I' for Inactive)
REMARK    1  A    between atoms: C1_1  and  C2_2
REMARK    2  A    between atoms: C2_2  and  C3_3
REMARK    3  A    between atoms: C3_3  and  C4_4
REMARK    4  A    between atoms: C4_4  and  N1_5
REMARK    5  A    between atoms: C9_12  and  N2_13
REMARK    6  A    between atoms: C12_16  and  N3_17
REMARK                            x       y       z     vdW  Elec       q    Type
REMARK                         _______ _______ _______ _____ _____    ______ ____
ROOT
ATOM      1  N1  UNL     1     -26.576 -33.128   1.761  0.00  0.00    -0.275 N 
ATOM      2  C5  UNL     1     -26.294 -31.901   2.252  0.00  0.00    +0.264 A 
ATOM      3  O1  UNL     1     -27.170 -31.106   2.688  0.00  0.00    -0.267 OA
ATOM      4  C6  UNL     1     -24.924 -31.671   2.231  0.00  0.00    +0.075 A 
ATOM      5  C7  UNL     1     -24.347 -32.806   1.723  0.00  0.00    +0.075 A 
ATOM      6  C8  UNL     1     -25.385 -33.687   1.451  0.00  0.00    +0.264 A 
ATOM      7  O2  UNL     1     -25.261 -34.859   1.003  0.00  0.00    -0.267 OA
ATOM      8  C9  UNL     1     -22.961 -32.961   1.640  0.00  0.00    +0.050 A 
ATOM      9  C10 UNL     1     -22.130 -31.863   2.040  0.00  0.00    +0.056 A 
ATOM     10  C11 UNL     1     -22.738 -30.669   2.576  0.00  0.00    +0.056 A 
ATOM     11  C12 UNL     1     -24.165 -30.597   2.701  0.00  0.00    +0.050 A 
ATOM     12  C13 UNL     1     -21.906 -29.570   2.927  0.00  0.00    +0.196 A 
ATOM     13  O3  UNL     1     -22.410 -28.479   3.312  0.00  0.00    -0.287 OA
ATOM     14  C14 UNL     1     -20.506 -29.662   2.824  0.00  0.00    +0.033 A 
ATOM     15  C15 UNL     1     -19.911 -30.830   2.300  0.00  0.00    +0.033 A 
ATOM     16  C16 UNL     1     -20.718 -31.904   1.880  0.00  0.00    +0.196 A 
ATOM     17  O4  UNL     1     -20.162 -32.895   1.330  0.00  0.00    -0.287 OA
ATOM     18  C17 UNL     1     -18.505 -30.896   2.184  0.00  0.00    +0.012 A 
ATOM     19  C18 UNL     1     -17.707 -29.825   2.587  0.00  0.00    +0.001 A 
ATOM     20  C19 UNL     1     -18.294 -28.673   3.103  0.00  0.00    +0.001 A 
ATOM     21  C20 UNL     1     -19.681 -28.587   3.221  0.00  0.00    +0.012 A 
ENDROOT
BRANCH   8  22
ATOM     22  N2  UNL     1     -22.422 -34.219   1.213  0.00  0.00    -0.357 N 
ATOM     23  H10 UNL     1     -22.870 -34.762   0.444  0.00  0.00    +0.142 HD
ATOM     24  H11 UNL     1     -21.667 -34.690   1.760  0.00  0.00    +0.142 HD
ENDBRANCH   8  22
BRANCH  11  25
ATOM     25  N3  UNL     1     -24.829 -29.493   3.333  0.00  0.00    -0.357 N 
ATOM     26  H12 UNL     1     -25.737 -29.132   2.969  0.00  0.00    +0.142 HD
ATOM     27  H13 UNL     1     -24.498 -29.129   4.254  0.00  0.00    +0.142 HD
ENDBRANCH  11  25
BRANCH   1  28
ATOM     28  C4  UNL     1     -27.894 -33.762   1.669  0.00  0.00    +0.128 C 
BRANCH  28  29
ATOM     29  C3  UNL     1     -28.691 -33.219   0.475  0.00  0.00    +0.021 C 
BRANCH  29  31
ATOM     30  C1  UNL     1     -27.702 -32.065  -1.540  0.00  0.00    +0.004 C 
ATOM     31  C2  UNL     1     -27.946 -33.405  -0.853  0.00  0.00    -0.002 C 
ENDBRANCH  29  31
ENDBRANCH  28  29
ENDBRANCH   1  28
TORSDOF 5
ENDMDL
MODEL 8
REMARK minimizedAffinity -6.22647572
REMARK minimizedRMSD -1
REMARK  Name = /home/tchapet/Post-Doc/ARTICLES-DOSSIERS-DES-ARTICLES-EN-REDACTION/NOUVELS-AXES-DE-RECHERCHE-A-REGARDER-URGEMMENT/ARTICLES-EN-REDACTIONS/ARTICLE_MVOTO/Paper2_JCIM/docking_rerun/ligands/18506.pdb
REMARK  6 active torsions:
REMARK  status: ('A' for Active; 'I' for Inactive)
REMARK    1  A    between atoms: C1_1  and  C2_2
REMARK    2  A    between atoms: C2_2  and  C3_3
REMARK    3  A    between atoms: C3_3  and  C4_4
REMARK    4  A    between atoms: C4_4  and  N1_5
REMARK    5  A    between atoms: C9_12  and  N2_13
REMARK    6  A    between atoms: C12_16  and  N3_17
REMARK                            x       y       z     vdW  Elec       q    Type
REMARK                         _______ _______ _______ _____ _____    ______ ____
ROOT
ATOM      1  N1  UNL     1     -26.466 -33.329   1.795  0.00  0.00    -0.275 N 
ATOM      2  C5  UNL     1     -25.260 -33.855   1.483  0.00  0.00    +0.264 A 
ATOM      3  O1  UNL     1     -25.109 -34.990   0.957  0.00  0.00    -0.267 OA
ATOM      4  C6  UNL     1     -24.244 -32.961   1.795  0.00  0.00    +0.075 A 
ATOM      5  C7  UNL     1     -24.853 -31.842   2.302  0.00  0.00    +0.075 A 
ATOM      6  C8  UNL     1     -26.218 -32.093   2.282  0.00  0.00    +0.264 A 
ATOM      7  O2  UNL     1     -27.122 -31.290   2.637  0.00  0.00    -0.267 OA
ATOM      8  C9  UNL     1     -24.132 -30.694   2.643  0.00  0.00    +0.050 A 
ATOM      9  C10 UNL     1     -22.704 -30.727   2.517  0.00  0.00    +0.056 A 
ATOM     10  C11 UNL     1     -22.064 -31.904   1.982  0.00  0.00    +0.056 A 
ATOM     11  C12 UNL     1     -22.864 -33.026   1.584  0.00  0.00    +0.050 A 
ATOM     12  C13 UNL     1     -20.644 -31.941   1.904  0.00  0.00    +0.196 A 
ATOM     13  O3  UNL     1     -20.048 -32.988   1.528  0.00  0.00    -0.287 OA
ATOM     14  C14 UNL     1     -19.871 -30.825   2.273  0.00  0.00    +0.033 A 
ATOM     15  C15 UNL     1     -20.498 -29.673   2.795  0.00  0.00    +0.033 A 
ATOM     16  C16 UNL     1     -21.896 -29.640   2.949  0.00  0.00    +0.196 A 
ATOM     17  O4  UNL     1     -22.417 -28.634   3.505  0.00  0.00    -0.287 OA
ATOM     18  C17 UNL     1     -19.703 -28.570   3.181  0.00  0.00    +0.012 A 
ATOM     19  C18 UNL     1     -18.315 -28.610   3.043  0.00  0.00    +0.001 A 
ATOM     20  C19 UNL     1     -17.698 -29.747   2.528  0.00  0.00    +0.001 A 
ATOM     21  C20 UNL     1     -18.465 -30.848   2.146  0.00  0.00    +0.012 A 
ENDROOT
BRANCH   8  22
ATOM     22  N2  UNL     1     -24.843 -29.518   3.052  0.00  0.00    -0.357 N 
ATOM     23  H10 UNL     1     -25.684 -29.584   3.665  0.00  0.00    +0.142 HD
ATOM     24  H11 UNL     1     -24.629 -28.589   2.625  0.00  0.00    +0.142 HD
ENDBRANCH   8  22
BRANCH  11  25
ATOM     25  N3  UNL     1     -22.309 -34.179   0.937  0.00  0.00    -0.357 N 
ATOM     26  H12 UNL     1     -22.665 -35.136   1.145  0.00  0.00    +0.142 HD
ATOM     27  H13 UNL     1     -21.646 -34.073   0.136  0.00  0.00    +0.142 HD
ENDBRANCH  11  25
BRANCH   1  28
ATOM     28  C4  UNL     1     -27.780 -33.936   1.567  0.00  0.00    +0.128 C 
BRANCH  28  29
ATOM     29  C3  UNL     1     -28.500 -33.278   0.383  0.00  0.00    +0.021 C 
BRANCH  29  31
ATOM     30  C1  UNL     1     -27.245 -32.021  -1.410  0.00  0.00    +0.004 C 
ATOM     31  C2  UNL     1     -27.698 -33.393  -0.921  0.00  0.00    -0.002 C 
ENDBRANCH  29  31
ENDBRANCH  28  29
ENDBRANCH   1  28
TORSDOF 5
ENDMDL
MODEL 9
REMARK minimizedAffinity -6.13695431
REMARK minimizedRMSD -1
REMARK  Name = /home/tchapet/Post-Doc/ARTICLES-DOSSIERS-DES-ARTICLES-EN-REDACTION/NOUVELS-AXES-DE-RECHERCHE-A-REGARDER-URGEMMENT/ARTICLES-EN-REDACTIONS/ARTICLE_MVOTO/Paper2_JCIM/docking_rerun/ligands/18506.pdb
REMARK  6 active torsions:
REMARK  status: ('A' for Active; 'I' for Inactive)
REMARK    1  A    between atoms: C1_1  and  C2_2
REMARK    2  A    between atoms: C2_2  and  C3_3
REMARK    3  A    between atoms: C3_3  and  C4_4
REMARK    4  A    between atoms: C4_4  and  N1_5
REMARK    5  A    between atoms: C9_12  and  N2_13
REMARK    6  A    between atoms: C12_16  and  N3_17
REMARK                            x       y       z     vdW  Elec       q    Type
REMARK                         _______ _______ _______ _____ _____    ______ ____
ROOT
ATOM      1  N1  UNL     1      -0.611  -9.655   5.737  0.00  0.00    -0.275 N 
ATOM      2  C5  UNL     1       0.280  -9.031   6.538  0.00  0.00    +0.264 A 
ATOM      3  O1  UNL     1       0.498  -9.365   7.734  0.00  0.00    -0.267 OA
ATOM      4  C6  UNL     1       0.923  -8.011   5.848  0.00  0.00    +0.075 A 
ATOM      5  C7  UNL     1       0.417  -8.024   4.574  0.00  0.00    +0.075 A 
ATOM      6  C8  UNL     1      -0.517  -9.050   4.533  0.00  0.00    +0.264 A 
ATOM      7  O2  UNL     1      -1.180  -9.405   3.521  0.00  0.00    -0.267 OA
ATOM      8  C9  UNL     1       0.905  -7.181   3.573  0.00  0.00    +0.050 A 
ATOM      9  C10 UNL     1       1.920  -6.230   3.921  0.00  0.00    +0.056 A 
ATOM     10  C11 UNL     1       2.454  -6.218   5.261  0.00  0.00    +0.056 A 
ATOM     11  C12 UNL     1       1.961  -7.156   6.227  0.00  0.00    +0.050 A 
ATOM     12  C13 UNL     1       3.428  -5.240   5.605  0.00  0.00    +0.196 A 
ATOM     13  O3  UNL     1       3.848  -5.142   6.791  0.00  0.00    -0.287 OA
ATOM     14  C14 UNL     1       3.923  -4.343   4.642  0.00  0.00    +0.033 A 
ATOM     15  C15 UNL     1       3.401  -4.355   3.331  0.00  0.00    +0.033 A 
ATOM     16  C16 UNL     1       2.385  -5.265   2.985  0.00  0.00    +0.196 A 
ATOM     17  O4  UNL     1       1.875  -5.189   1.834  0.00  0.00    -0.287 OA
ATOM     18  C17 UNL     1       3.895  -3.430   2.383  0.00  0.00    +0.012 A 
ATOM     19  C18 UNL     1       4.891  -2.517   2.731  0.00  0.00    +0.001 A 
ATOM     20  C19 UNL     1       5.405  -2.505   4.025  0.00  0.00    +0.001 A 
ATOM     21  C20 UNL     1       4.927  -3.407   4.976  0.00  0.00    +0.012 A 
ENDROOT
BRANCH   8  22
ATOM     22  N2  UNL     1       0.415  -7.330   2.233  0.00  0.00    -0.357 N 
ATOM     23  H10 UNL     1      -0.591  -7.529   2.047  0.00  0.00    +0.142 HD
ATOM     24  H11 UNL     1       1.077  -7.395   1.427  0.00  0.00    +0.142 HD
ENDBRANCH   8  22
BRANCH  11  25
ATOM     25  N3  UNL     1       2.526  -7.280   7.540  0.00  0.00    -0.357 N 
ATOM     26  H12 UNL     1       1.924  -7.469   8.369  0.00  0.00    +0.142 HD
ATOM     27  H13 UNL     1       3.561  -7.336   7.671  0.00  0.00    +0.142 HD
ENDBRANCH  11  25
BRANCH   1  28
ATOM     28  C4  UNL     1      -1.444 -10.813   6.076  0.00  0.00    +0.128 C 
BRANCH  28  29
ATOM     29  C3  UNL     1      -0.691 -12.129   5.839  0.00  0.00    +0.021 C 
BRANCH  29  31
ATOM     30  C1  UNL     1      -0.397 -12.836   3.434  0.00  0.00    +0.004 C 
ATOM     31  C2  UNL     1      -1.281 -12.934   4.673  0.00  0.00    -0.002 C 
ENDBRANCH  29  31
ENDBRANCH  28  29
ENDBRANCH   1  28
TORSDOF 5
ENDMDL
