MODEL 1
REMARK minimizedAffinity -6.61733484
REMARK minimizedRMSD -1
REMARK  Name = /home/tchapet/Post-Doc/ARTICLES-DOSSIERS-DES-ARTICLES-EN-REDACTION/NOUVELS-AXES-DE-RECHERCHE-A-REGARDER-URGEMMENT/ARTICLES-EN-REDACTIONS/ARTICLE_MVOTO/Paper2_JCIM/docking_rerun/ligands/18506.pdb
REMARK  6 active torsions:
REMARK  status: ('A' for Active; 'I' for Inactive)
REMARK    1  A    between atoms: C1_1  and  C2_2
REMARK    2  A    between atoms: C2_2  and  C3_3
REMARK    3  A    between atoms: C3_3  and  C4_4
REMARK    4  A    between atoms: C4_4  and  N1_5
REMARK    5  A    between atoms: C9_12  and  N2_13
REMARK    6  A    between atoms: C12_16  and  N3_17
REMARK                            x       y       z     vdW  Elec       q    Type
REMARK                         _______ _______ _______ _____ _____    ______ ____
ROOT
ATOM      1  N1  UNL     1      -1.646 -14.252  19.112  0.00  0.00    -0.275 N 
ATOM      2  C5  UNL     1      -0.485 -14.518  19.751  0.00  0.00    +0.264 A 
ATOM      3  O1  UNL     1       0.643 -14.492  19.189  0.00  0.00    -0.267 OA
ATOM      4  C6  UNL     1      -0.719 -14.786  21.094  0.00  0.00    +0.075 A 
ATOM      5  C7  UNL     1      -2.072 -14.663  21.285  0.00  0.00    +0.075 A 
ATOM      6  C8  UNL     1      -2.614 -14.326  20.052  0.00  0.00    +0.264 A 
ATOM      7  O2  UNL     1      -3.830 -14.091  19.819  0.00  0.00    -0.267 OA
ATOM      8  C9  UNL     1      -2.657 -14.780  22.548  0.00  0.00    +0.050 A 
ATOM      9  C10 UNL     1      -1.812 -15.105  23.660  0.00  0.00    +0.056 A 
ATOM     10  C11 UNL     1      -0.389 -15.233  23.459  0.00  0.00    +0.056 A 
ATOM     11  C12 UNL     1       0.161 -15.033  22.151  0.00  0.00    +0.050 A 
ATOM     12  C13 UNL     1       0.432 -15.600  24.561  0.00  0.00    +0.196 A 
ATOM     13  O3  UNL     1       1.666 -15.809  24.401  0.00  0.00    -0.287 OA
ATOM     14  C14 UNL     1      -0.116 -15.768  25.846  0.00  0.00    +0.033 A 
ATOM     15  C15 UNL     1      -1.508 -15.643  26.042  0.00  0.00    +0.033 A 
ATOM     16  C16 UNL     1      -2.350 -15.350  24.954  0.00  0.00    +0.196 A 
ATOM     17  O4  UNL     1      -3.597 -15.337  25.144  0.00  0.00    -0.287 OA
ATOM     18  C17 UNL     1      -2.042 -15.837  27.336  0.00  0.00    +0.012 A 
ATOM     19  C18 UNL     1      -1.209 -16.143  28.412  0.00  0.00    +0.001 A 
ATOM     20  C19 UNL     1       0.165 -16.266  28.218  0.00  0.00    +0.001 A 
ATOM     21  C20 UNL     1       0.710 -16.083  26.947  0.00  0.00    +0.012 A 
ENDROOT
BRANCH   8  22
ATOM     22  N2  UNL     1      -4.060 -14.521  22.696  0.00  0.00    -0.357 N 
ATOM     23  H10 UNL     1      -4.744 -14.837  21.975  0.00  0.00    +0.142 HD
ATOM     24  H11 UNL     1      -4.408 -13.881  23.444  0.00  0.00    +0.142 HD
ENDBRANCH   8  22
BRANCH  11  25
ATOM     25  N3  UNL     1       1.573 -15.027  21.900  0.00  0.00    -0.357 N 
ATOM     26  H12 UNL     1       1.967 -15.440  21.028  0.00  0.00    +0.142 HD
ATOM     27  H13 UNL     1       2.220 -14.476  22.508  0.00  0.00    +0.142 HD
ENDBRANCH  11  25
BRANCH   1  28
ATOM     28  C4  UNL     1      -1.813 -13.869  17.707  0.00  0.00    +0.128 C 
BRANCH  28  29
ATOM     29  C3  UNL     1      -2.054 -12.361  17.565  0.00  0.00    +0.021 C 
BRANCH  29  31
ATOM     30  C1  UNL     1      -0.896 -10.171  18.048  0.00  0.00    +0.004 C 
ATOM     31  C2  UNL     1      -0.742 -11.571  17.462  0.00  0.00    -0.002 C 
ENDBRANCH  29  31
ENDBRANCH  28  29
ENDBRANCH   1  28
TORSDOF 5
ENDMDL
MODEL 2
REMARK minimizedAffinity -6.54798317
REMARK minimizedRMSD -1
REMARK  Name = /home/tchapet/Post-Doc/ARTICLES-DOSSIERS-DES-ARTICLES-EN-REDACTION/NOUVELS-AXES-DE-RECHERCHE-A-REGARDER-URGEMMENT/ARTICLES-EN-REDACTIONS/ARTICLE_MVOTO/Paper2_JCIM/docking_rerun/ligands/18506.pdb
REMARK  6 active torsions:
REMARK  status: ('A' for Active; 'I' for Inactive)
REMARK    1  A    between atoms: C1_1  and  C2_2
REMARK    2  A    between atoms: C2_2  and  C3_3
REMARK    3  A    between atoms: C3_3  and  C4_4
REMARK    4  A    between atoms: C4_4  and  N1_5
REMARK    5  A    between atoms: C9_12  and  N2_13
REMARK    6  A    between atoms: C12_16  and  N3_17
REMARK                            x       y       z     vdW  Elec       q    Type
REMARK                         _______ _______ _______ _____ _____    ______ ____
ROOT
ATOM      1  N1  UNL     1      -1.596 -13.783  18.257  0.00  0.00    -0.275 N 
ATOM      2  C5  UNL     1      -2.734 -14.049  18.936  0.00  0.00    +0.264 A 
ATOM      3  O1  UNL     1      -3.878 -14.043  18.408  0.00  0.00    -0.267 OA
ATOM      4  C6  UNL     1      -2.451 -14.354  20.261  0.00  0.00    +0.075 A 
ATOM      5  C7  UNL     1      -1.088 -14.285  20.393  0.00  0.00    +0.075 A 
ATOM      6  C8  UNL     1      -0.588 -13.941  19.144  0.00  0.00    +0.264 A 
ATOM      7  O2  UNL     1       0.629 -13.813  18.845  0.00  0.00    -0.267 OA
ATOM      8  C9  UNL     1      -0.439 -14.621  21.584  0.00  0.00    +0.050 A 
ATOM      9  C10 UNL     1      -1.242 -14.980  22.716  0.00  0.00    +0.056 A 
ATOM     10  C11 UNL     1      -2.676 -15.054  22.577  0.00  0.00    +0.056 A 
ATOM     11  C12 UNL     1      -3.279 -14.765  21.308  0.00  0.00    +0.050 A 
ATOM     12  C13 UNL     1      -3.464 -15.368  23.719  0.00  0.00    +0.196 A 
ATOM     13  O3  UNL     1      -4.724 -15.350  23.654  0.00  0.00    -0.287 OA
ATOM     14  C14 UNL     1      -2.860 -15.675  24.951  0.00  0.00    +0.033 A 
ATOM     15  C15 UNL     1      -1.457 -15.603  25.087  0.00  0.00    +0.033 A 
ATOM     16  C16 UNL     1      -0.661 -15.225  23.991  0.00  0.00    +0.196 A 
ATOM     17  O4  UNL     1       0.580 -15.080  24.169  0.00  0.00    -0.287 OA
ATOM     18  C17 UNL     1      -0.870 -15.893  26.340  0.00  0.00    +0.012 A 
ATOM     19  C18 UNL     1      -1.661 -16.253  27.431  0.00  0.00    +0.001 A 
ATOM     20  C19 UNL     1      -3.045 -16.323  27.296  0.00  0.00    +0.001 A 
ATOM     21  C20 UNL     1      -3.644 -16.035  26.070  0.00  0.00    +0.012 A 
ENDROOT
BRANCH   8  22
ATOM     22  N2  UNL     1       0.995 -14.644  21.617  0.00  0.00    -0.357 N 
ATOM     23  H10 UNL     1       1.556 -13.921  21.118  0.00  0.00    +0.142 HD
ATOM     24  H11 UNL     1       1.506 -15.466  22.010  0.00  0.00    +0.142 HD
ENDBRANCH   8  22
BRANCH  11  25
ATOM     25  N3  UNL     1      -4.683 -14.932  21.066  0.00  0.00    -0.357 N 
ATOM     26  H12 UNL     1      -5.208 -14.264  20.461  0.00  0.00    +0.142 HD
ATOM     27  H13 UNL     1      -5.175 -15.805  21.361  0.00  0.00    +0.142 HD
ENDBRANCH  11  25
BRANCH   1  28
ATOM     28  C4  UNL     1      -1.469 -13.476  16.830  0.00  0.00    +0.128 C 
BRANCH  28  29
ATOM     29  C3  UNL     1      -1.789 -12.002  16.547  0.00  0.00    +0.021 C 
BRANCH  29  31
ATOM     30  C1  UNL     1      -0.981 -10.168  18.080  0.00  0.00    +0.004 C 
ATOM     31  C2  UNL     1      -0.621 -11.075  16.908  0.00  0.00    -0.002 C 
ENDBRANCH  29  31
ENDBRANCH  28  29
ENDBRANCH   1  28
TORSDOF 5
ENDMDL
MODEL 3
REMARK minimizedAffinity -6.48975229
REMARK minimizedRMSD -1
REMARK  Name = /home/tchapet/Post-Doc/ARTICLES-DOSSIERS-DES-ARTICLES-EN-REDACTION/NOUVELS-AXES-DE-RECHERCHE-A-REGARDER-URGEMMENT/ARTICLES-EN-REDACTIONS/ARTICLE_MVOTO/Paper2_JCIM/docking_rerun/ligands/18506.pdb
REMARK  6 active torsions:
REMARK  status: ('A' for Active; 'I' for Inactive)
REMARK    1  A    between atoms: C1_1  and  C2_2
REMARK    2  A    between atoms: C2_2  and  C3_3
REMARK    3  A    between atoms: C3_3  and  C4_4
REMARK    4  A    between atoms: C4_4  and  N1_5
REMARK    5  A    between atoms: C9_12  and  N2_13
REMARK    6  A    between atoms: C12_16  and  N3_17
REMARK                            x       y       z     vdW  Elec       q    Type
REMARK                         _______ _______ _______ _____ _____    ______ ____
ROOT
ATOM      1  N1  UNL     1       6.404  -2.788   0.188  0.00  0.00    -0.275 N 
ATOM      2  C5  UNL     1       5.886  -3.853   0.839  0.00  0.00    +0.264 A 
ATOM      3  O1  UNL     1       6.555  -4.874   1.149  0.00  0.00    -0.267 OA
ATOM      4  C6  UNL     1       4.545  -3.638   1.134  0.00  0.00    +0.075 A 
ATOM      5  C7  UNL     1       4.238  -2.389   0.658  0.00  0.00    +0.075 A 
ATOM      6  C8  UNL     1       5.401  -1.887   0.090  0.00  0.00    +0.264 A 
ATOM      7  O2  UNL     1       5.537  -0.746  -0.428  0.00  0.00    -0.267 OA
ATOM      8  C9  UNL     1       2.985  -1.805   0.861  0.00  0.00    +0.050 A 
ATOM      9  C10 UNL     1       1.977  -2.576   1.529  0.00  0.00    +0.056 A 
ATOM     10  C11 UNL     1       2.302  -3.889   2.031  0.00  0.00    +0.056 A 
ATOM     11  C12 UNL     1       3.627  -4.407   1.854  0.00  0.00    +0.050 A 
ATOM     12  C13 UNL     1       1.280  -4.660   2.652  0.00  0.00    +0.196 A 
ATOM     13  O3  UNL     1       1.505  -5.847   3.020  0.00  0.00    -0.287 OA
ATOM     14  C14 UNL     1      -0.009  -4.132   2.844  0.00  0.00    +0.033 A 
ATOM     15  C15 UNL     1      -0.326  -2.847   2.354  0.00  0.00    +0.033 A 
ATOM     16  C16 UNL     1       0.647  -2.093   1.672  0.00  0.00    +0.196 A 
ATOM     17  O4  UNL     1       0.306  -0.989   1.165  0.00  0.00    -0.287 OA
ATOM     18  C17 UNL     1      -1.633  -2.342   2.536  0.00  0.00    +0.012 A 
ATOM     19  C18 UNL     1      -2.602  -3.097   3.198  0.00  0.00    +0.001 A 
ATOM     20  C19 UNL     1      -2.288  -4.365   3.682  0.00  0.00    +0.001 A 
ATOM     21  C20 UNL     1      -1.005  -4.883   3.507  0.00  0.00    +0.012 A 
ENDROOT
BRANCH   8  22
ATOM     22  N2  UNL     1       2.769  -0.450   0.443  0.00  0.00    -0.357 N 
ATOM     23  H10 UNL     1       3.168  -0.093  -0.451  0.00  0.00    +0.142 HD
ATOM     24  H11 UNL     1       2.341   0.246   1.093  0.00  0.00    +0.142 HD
ENDBRANCH   8  22
BRANCH  11  25
ATOM     25  N3  UNL     1       4.053  -5.650   2.428  0.00  0.00    -0.357 N 
ATOM     26  H12 UNL     1       4.698  -6.287   1.913  0.00  0.00    +0.142 HD
ATOM     27  H13 UNL     1       3.851  -5.872   3.429  0.00  0.00    +0.142 HD
ENDBRANCH  11  25
BRANCH   1  28
ATOM     28  C4  UNL     1       7.792  -2.606  -0.244  0.00  0.00    +0.128 C 
BRANCH  28  29
ATOM     29  C3  UNL     1       8.702  -2.254   0.941  0.00  0.00    +0.021 C 
BRANCH  29  31
ATOM     30  C1  UNL     1      10.421  -0.411   1.092  0.00  0.00    +0.004 C 
ATOM     31  C2  UNL     1       8.932  -0.742   1.067  0.00  0.00    -0.002 C 
ENDBRANCH  29  31
ENDBRANCH  28  29
ENDBRANCH   1  28
TORSDOF 5
ENDMDL
MODEL 4
REMARK minimizedAffinity -6.36440992
REMARK minimizedRMSD -1
REMARK  Name = /home/tchapet/Post-Doc/ARTICLES-DOSSIERS-DES-ARTICLES-EN-REDACTION/NOUVELS-AXES-DE-RECHERCHE-A-REGARDER-URGEMMENT/ARTICLES-EN-REDACTIONS/ARTICLE_MVOTO/Paper2_JCIM/docking_rerun/ligands/18506.pdb
REMARK  6 active torsions:
REMARK  status: ('A' for Active; 'I' for Inactive)
REMARK    1  A    between atoms: C1_1  and  C2_2
REMARK    2  A    between atoms: C2_2  and  C3_3
REMARK    3  A    between atoms: C3_3  and  C4_4
REMARK    4  A    between atoms: C4_4  and  N1_5
REMARK    5  A    between atoms: C9_12  and  N2_13
REMARK    6  A    between atoms: C12_16  and  N3_17
REMARK                            x       y       z     vdW  Elec       q    Type
REMARK                         _______ _______ _______ _____ _____    ______ ____
ROOT
ATOM      1  N1  UNL     1       6.454  -2.608   0.128  0.00  0.00    -0.275 N 
ATOM      2  C5  UNL     1       5.423  -1.738   0.043  0.00  0.00    +0.264 A 
ATOM      3  O1  UNL     1       5.494  -0.629  -0.553  0.00  0.00    -0.267 OA
ATOM      4  C6  UNL     1       4.296  -2.255   0.668  0.00  0.00    +0.075 A 
ATOM      5  C7  UNL     1       4.648  -3.494   1.140  0.00  0.00    +0.075 A 
ATOM      6  C8  UNL     1       5.976  -3.687   0.786  0.00  0.00    +0.264 A 
ATOM      7  O2  UNL     1       6.657  -4.724   1.011  0.00  0.00    -0.267 OA
ATOM      8  C9  UNL     1       3.724  -4.344   1.754  0.00  0.00    +0.050 A 
ATOM      9  C10 UNL     1       2.387  -3.865   1.951  0.00  0.00    +0.056 A 
ATOM     10  C11 UNL     1       2.017  -2.562   1.453  0.00  0.00    +0.056 A 
ATOM     11  C12 UNL     1       2.992  -1.764   0.769  0.00  0.00    +0.050 A 
ATOM     12  C13 UNL     1       0.701  -2.081   1.694  0.00  0.00    +0.196 A 
ATOM     13  O3  UNL     1       0.372  -0.911   1.354  0.00  0.00    -0.287 OA
ATOM     14  C14 UNL     1      -0.254  -2.884   2.343  0.00  0.00    +0.033 A 
ATOM     15  C15 UNL     1       0.107  -4.159   2.830  0.00  0.00    +0.033 A 
ATOM     16  C16 UNL     1       1.423  -4.628   2.666  0.00  0.00    +0.196 A 
ATOM     17  O4  UNL     1       1.740  -5.730   3.193  0.00  0.00    -0.287 OA
ATOM     18  C17 UNL     1      -0.860  -4.942   3.499  0.00  0.00    +0.012 A 
ATOM     19  C18 UNL     1      -2.161  -4.469   3.675  0.00  0.00    +0.001 A 
ATOM     20  C19 UNL     1      -2.517  -3.212   3.195  0.00  0.00    +0.001 A 
ATOM     21  C20 UNL     1      -1.575  -2.422   2.536  0.00  0.00    +0.012 A 
ENDROOT
BRANCH   8  22
ATOM     22  N2  UNL     1       4.128  -5.672   2.114  0.00  0.00    -0.357 N 
ATOM     23  H10 UNL     1       5.074  -5.857   2.510  0.00  0.00    +0.142 HD
ATOM     24  H11 UNL     1       3.547  -6.498   1.847  0.00  0.00    +0.142 HD
ENDBRANCH   8  22
BRANCH  11  25
ATOM     25  N3  UNL     1       2.665  -0.514   0.146  0.00  0.00    -0.357 N 
ATOM     26  H12 UNL     1       3.332   0.288   0.166  0.00  0.00    +0.142 HD
ATOM     27  H13 UNL     1       1.825  -0.428  -0.469  0.00  0.00    +0.142 HD
ENDBRANCH  11  25
BRANCH   1  28
ATOM     28  C4  UNL     1       7.790  -2.454  -0.454  0.00  0.00    +0.128 C 
BRANCH  28  29
ATOM     29  C3  UNL     1       8.858  -2.295   0.637  0.00  0.00    +0.021 C 
BRANCH  29  31
ATOM     30  C1  UNL     1      10.146  -0.280   1.445  0.00  0.00    +0.004 C 
ATOM     31  C2  UNL     1       8.771  -0.932   1.338  0.00  0.00    -0.002 C 
ENDBRANCH  29  31
ENDBRANCH  28  29
ENDBRANCH   1  28
TORSDOF 5
ENDMDL
MODEL 5
REMARK minimizedAffinity -6.3329277
REMARK minimizedRMSD -1
REMARK  Name = /home/tchapet/Post-Doc/ARTICLES-DOSSIERS-DES-ARTICLES-EN-REDACTION/NOUVELS-AXES-DE-RECHERCHE-A-REGARDER-URGEMMENT/ARTICLES-EN-REDACTIONS/ARTICLE_MVOTO/Paper2_JCIM/docking_rerun/ligands/18506.pdb
REMARK  6 active torsions:
REMARK  status: ('A' for Active; 'I' for Inactive)
REMARK    1  A    between atoms: C1_1  and  C2_2
REMARK    2  A    between atoms: C2_2  and  C3_3
REMARK    3  A    between atoms: C3_3  and  C4_4
REMARK    4  A    between atoms: C4_4  and  N1_5
REMARK    5  A    between atoms: C9_12  and  N2_13
REMARK    6  A    between atoms: C12_16  and  N3_17
REMARK                            x       y       z     vdW  Elec       q    Type
REMARK                         _______ _______ _______ _____ _____    ______ ____
ROOT
ATOM      1  N1  UNL     1      -1.472 -13.513  18.525  0.00  0.00    -0.275 N 
ATOM      2  C5  UNL     1      -1.215 -13.517  19.851  0.00  0.00    +0.264 A 
ATOM      3  O1  UNL     1      -1.780 -12.748  20.674  0.00  0.00    -0.267 OA
ATOM      4  C6  UNL     1      -0.280 -14.497  20.163  0.00  0.00    +0.075 A 
ATOM      5  C7  UNL     1       0.033 -15.124  18.984  0.00  0.00    +0.075 A 
ATOM      6  C8  UNL     1      -0.720 -14.505  17.997  0.00  0.00    +0.264 A 
ATOM      7  O2  UNL     1      -0.740 -14.819  16.776  0.00  0.00    -0.267 OA
ATOM      8  C9  UNL     1       0.886 -16.230  18.936  0.00  0.00    +0.050 A 
ATOM      9  C10 UNL     1       1.498 -16.669  20.156  0.00  0.00    +0.056 A 
ATOM     10  C11 UNL     1       1.167 -16.010  21.396  0.00  0.00    +0.056 A 
ATOM     11  C12 UNL     1       0.230 -14.924  21.391  0.00  0.00    +0.050 A 
ATOM     12  C13 UNL     1       1.815 -16.426  22.591  0.00  0.00    +0.196 A 
ATOM     13  O3  UNL     1       1.618 -15.812  23.676  0.00  0.00    -0.287 OA
ATOM     14  C14 UNL     1       2.713 -17.509  22.588  0.00  0.00    +0.033 A 
ATOM     15  C15 UNL     1       3.036 -18.154  21.375  0.00  0.00    +0.033 A 
ATOM     16  C16 UNL     1       2.462 -17.715  20.168  0.00  0.00    +0.196 A 
ATOM     17  O4  UNL     1       2.842 -18.250  19.090  0.00  0.00    -0.287 OA
ATOM     18  C17 UNL     1       3.957 -19.226  21.388  0.00  0.00    +0.012 A 
ATOM     19  C18 UNL     1       4.538 -19.651  22.583  0.00  0.00    +0.001 A 
ATOM     20  C19 UNL     1       4.218 -19.014  23.779  0.00  0.00    +0.001 A 
ATOM     21  C20 UNL     1       3.316 -17.951  23.786  0.00  0.00    +0.012 A 
ENDROOT
BRANCH   8  22
ATOM     22  N2  UNL     1       1.075 -16.913  17.689  0.00  0.00    -0.357 N 
ATOM     23  H10 UNL     1       1.154 -16.385  16.793  0.00  0.00    +0.142 HD
ATOM     24  H11 UNL     1       0.985 -17.952  17.630  0.00  0.00    +0.142 HD
ENDBRANCH   8  22
BRANCH  11  25
ATOM     25  N3  UNL     1      -0.234 -14.302  22.597  0.00  0.00    -0.357 N 
ATOM     26  H12 UNL     1      -0.406 -13.274  22.640  0.00  0.00    +0.142 HD
ATOM     27  H13 UNL     1      -0.556 -14.880  23.406  0.00  0.00    +0.142 HD
ENDBRANCH  11  25
BRANCH   1  28
ATOM     28  C4  UNL     1      -2.437 -12.669  17.814  0.00  0.00    +0.128 C 
BRANCH  28  29
ATOM     29  C3  UNL     1      -1.732 -11.552  17.034  0.00  0.00    +0.021 C 
BRANCH  29  31
ATOM     30  C1  UNL     1       0.420 -10.509  17.844  0.00  0.00    +0.004 C 
ATOM     31  C2  UNL     1      -1.101 -10.505  17.963  0.00  0.00    -0.002 C 
ENDBRANCH  29  31
ENDBRANCH  28  29
ENDBRANCH   1  28
TORSDOF 5
ENDMDL
MODEL 6
REMARK minimizedAffinity -6.30440426
REMARK minimizedRMSD -1
REMARK  Name = /home/tchapet/Post-Doc/ARTICLES-DOSSIERS-DES-ARTICLES-EN-REDACTION/NOUVELS-AXES-DE-RECHERCHE-A-REGARDER-URGEMMENT/ARTICLES-EN-REDACTIONS/ARTICLE_MVOTO/Paper2_JCIM/docking_rerun/ligands/18506.pdb
REMARK  6 active torsions:
REMARK  status: ('A' for Active; 'I' for Inactive)
REMARK    1  A    between atoms: C1_1  and  C2_2
REMARK    2  A    between atoms: C2_2  and  C3_3
REMARK    3  A    between atoms: C3_3  and  C4_4
REMARK    4  A    between atoms: C4_4  and  N1_5
REMARK    5  A    between atoms: C9_12  and  N2_13
REMARK    6  A    between atoms: C12_16  and  N3_17
REMARK                            x       y       z     vdW  Elec       q    Type
REMARK                         _______ _______ _______ _____ _____    ______ ____
ROOT
ATOM      1  N1  UNL     1       1.964 -16.775  24.263  0.00  0.00    -0.275 N 
ATOM      2  C5  UNL     1       2.226 -15.790  25.151  0.00  0.00    +0.264 A 
ATOM      3  O1  UNL     1       1.331 -15.148  25.764  0.00  0.00    -0.267 OA
ATOM      4  C6  UNL     1       3.596 -15.621  25.301  0.00  0.00    +0.075 A 
ATOM      5  C7  UNL     1       4.193 -16.549  24.486  0.00  0.00    +0.075 A 
ATOM      6  C8  UNL     1       3.167 -17.249  23.868  0.00  0.00    +0.264 A 
ATOM      7  O2  UNL     1       3.307 -18.212  23.067  0.00  0.00    -0.267 OA
ATOM      8  C9  UNL     1       5.579 -16.724  24.451  0.00  0.00    +0.050 A 
ATOM      9  C10 UNL     1       6.394 -15.852  25.248  0.00  0.00    +0.056 A 
ATOM     10  C11 UNL     1       5.765 -14.878  26.106  0.00  0.00    +0.056 A 
ATOM     11  C12 UNL     1       4.334 -14.793  26.150  0.00  0.00    +0.050 A 
ATOM     12  C13 UNL     1       6.585 -13.990  26.856  0.00  0.00    +0.196 A 
ATOM     13  O3  UNL     1       6.069 -13.067  27.545  0.00  0.00    -0.287 OA
ATOM     14  C14 UNL     1       7.986 -14.100  26.825  0.00  0.00    +0.033 A 
ATOM     15  C15 UNL     1       8.601 -15.054  25.985  0.00  0.00    +0.033 A 
ATOM     16  C16 UNL     1       7.814 -15.895  25.179  0.00  0.00    +0.196 A 
ATOM     17  O4  UNL     1       8.394 -16.672  24.372  0.00  0.00    -0.287 OA
ATOM     18  C17 UNL     1      10.012 -15.134  25.950  0.00  0.00    +0.012 A 
ATOM     19  C18 UNL     1      10.793 -14.288  26.738  0.00  0.00    +0.001 A 
ATOM     20  C19 UNL     1      10.186 -13.347  27.565  0.00  0.00    +0.001 A 
ATOM     21  C20 UNL     1       8.795 -13.249  27.610  0.00  0.00    +0.012 A 
ENDROOT
BRANCH   8  22
ATOM     22  N2  UNL     1       6.130 -17.792  23.669  0.00  0.00    -0.357 N 
ATOM     23  H10 UNL     1       5.735 -18.033  22.735  0.00  0.00    +0.142 HD
ATOM     24  H11 UNL     1       6.833 -18.446  24.079  0.00  0.00    +0.142 HD
ENDBRANCH   8  22
BRANCH  11  25
ATOM     25  N3  UNL     1       3.641 -13.933  27.065  0.00  0.00    -0.357 N 
ATOM     26  H12 UNL     1       2.769 -13.436  26.780  0.00  0.00    +0.142 HD
ATOM     27  H13 UNL     1       3.904 -13.905  28.075  0.00  0.00    +0.142 HD
ENDBRANCH  11  25
BRANCH   1  28
ATOM     28  C4  UNL     1       0.648 -17.289  23.877  0.00  0.00    +0.128 C 
BRANCH  28  29
ATOM     29  C3  UNL     1       0.068 -16.505  22.692  0.00  0.00    +0.021 C 
BRANCH  29  31
ATOM     30  C1  UNL     1      -0.520 -14.062  22.929  0.00  0.00    +0.004 C 
ATOM     31  C2  UNL     1      -1.001 -15.495  23.132  0.00  0.00    -0.002 C 
ENDBRANCH  29  31
ENDBRANCH  28  29
ENDBRANCH   1  28
TORSDOF 5
ENDMDL
MODEL 7
REMARK minimizedAffinity -6.20096064
REMARK minimizedRMSD -1
REMARK  Name = /home/tchapet/Post-Doc/ARTICLES-DOSSIERS-DES-ARTICLES-EN-REDACTION/NOUVELS-AXES-DE-RECHERCHE-A-REGARDER-URGEMMENT/ARTICLES-EN-REDACTIONS/ARTICLE_MVOTO/Paper2_JCIM/docking_rerun/ligands/18506.pdb
REMARK  6 active torsions:
REMARK  status: ('A' for Active; 'I' for Inactive)
REMARK    1  A    between atoms: C1_1  and  C2_2
REMARK    2  A    between atoms: C2_2  and  C3_3
REMARK    3  A    between atoms: C3_3  and  C4_4
REMARK    4  A    between atoms: C4_4  and  N1_5
REMARK    5  A    between atoms: C9_12  and  N2_13
REMARK    6  A    between atoms: C12_16  and  N3_17
REMARK                            x       y       z     vdW  Elec       q    Type
REMARK                         _______ _______ _______ _____ _____    ______ ____
ROOT
ATOM      1  N1  UNL     1       8.860 -11.077  29.186  0.00  0.00    -0.275 N 
ATOM      2  C5  UNL     1       9.653 -11.946  28.520  0.00  0.00    +0.264 A 
ATOM      3  O1  UNL     1      10.910 -11.955  28.612  0.00  0.00    -0.267 OA
ATOM      4  C6  UNL     1       8.885 -12.823  27.764  0.00  0.00    +0.075 A 
ATOM      5  C7  UNL     1       7.575 -12.487  27.989  0.00  0.00    +0.075 A 
ATOM      6  C8  UNL     1       7.590 -11.417  28.873  0.00  0.00    +0.264 A 
ATOM      7  O2  UNL     1       6.577 -10.841  29.353  0.00  0.00    -0.267 OA
ATOM      8  C9  UNL     1       6.517 -13.223  27.451  0.00  0.00    +0.050 A 
ATOM      9  C10 UNL     1       6.826 -14.322  26.584  0.00  0.00    +0.056 A 
ATOM     10  C11 UNL     1       8.205 -14.677  26.348  0.00  0.00    +0.056 A 
ATOM     11  C12 UNL     1       9.247 -13.925  26.985  0.00  0.00    +0.050 A 
ATOM     12  C13 UNL     1       8.499 -15.740  25.450  0.00  0.00    +0.196 A 
ATOM     13  O3  UNL     1       9.693 -16.016  25.151  0.00  0.00    -0.287 OA
ATOM     14  C14 UNL     1       7.468 -16.487  24.853  0.00  0.00    +0.033 A 
ATOM     15  C15 UNL     1       6.119 -16.140  25.083  0.00  0.00    +0.033 A 
ATOM     16  C16 UNL     1       5.804 -15.047  25.911  0.00  0.00    +0.196 A 
ATOM     17  O4  UNL     1       4.595 -14.706  26.023  0.00  0.00    -0.287 OA
ATOM     18  C17 UNL     1       5.098 -16.889  24.456  0.00  0.00    +0.012 A 
ATOM     19  C18 UNL     1       5.411 -17.963  23.622  0.00  0.00    +0.001 A 
ATOM     20  C19 UNL     1       6.742 -18.304  23.395  0.00  0.00    +0.001 A 
ATOM     21  C20 UNL     1       7.765 -17.574  24.001  0.00  0.00    +0.012 A 
ENDROOT
BRANCH   8  22
ATOM     22  N2  UNL     1       5.172 -12.891  27.824  0.00  0.00    -0.357 N 
ATOM     23  H10 UNL     1       4.874 -11.898  27.931  0.00  0.00    +0.142 HD
ATOM     24  H11 UNL     1       4.509 -13.631  28.146  0.00  0.00    +0.142 HD
ENDBRANCH   8  22
BRANCH  11  25
ATOM     25  N3  UNL     1      10.630 -14.292  26.891  0.00  0.00    -0.357 N 
ATOM     26  H12 UNL     1      11.376 -13.567  26.819  0.00  0.00    +0.142 HD
ATOM     27  H13 UNL     1      10.931 -15.281  27.048  0.00  0.00    +0.142 HD
ENDBRANCH  11  25
BRANCH   1  28
ATOM     28  C4  UNL     1       9.285 -10.038  30.128  0.00  0.00    +0.128 C 
BRANCH  28  29
ATOM     29  C3  UNL     1       9.303  -8.656  29.463  0.00  0.00    +0.021 C 
BRANCH  29  31
ATOM     30  C1  UNL     1      10.367  -8.554  27.176  0.00  0.00    +0.004 C 
ATOM     31  C2  UNL     1      10.598  -8.408  28.677  0.00  0.00    -0.002 C 
ENDBRANCH  29  31
ENDBRANCH  28  29
ENDBRANCH   1  28
TORSDOF 5
ENDMDL
MODEL 8
REMARK minimizedAffinity -6.20017242
REMARK minimizedRMSD -1
REMARK  Name = /home/tchapet/Post-Doc/ARTICLES-DOSSIERS-DES-ARTICLES-EN-REDACTION/NOUVELS-AXES-DE-RECHERCHE-A-REGARDER-URGEMMENT/ARTICLES-EN-REDACTIONS/ARTICLE_MVOTO/Paper2_JCIM/docking_rerun/ligands/18506.pdb
REMARK  6 active torsions:
REMARK  status: ('A' for Active; 'I' for Inactive)
REMARK    1  A    between atoms: C1_1  and  C2_2
REMARK    2  A    between atoms: C2_2  and  C3_3
REMARK    3  A    between atoms: C3_3  and  C4_4
REMARK    4  A    between atoms: C4_4  and  N1_5
REMARK    5  A    between atoms: C9_12  and  N2_13
REMARK    6  A    between atoms: C12_16  and  N3_17
REMARK                            x       y       z     vdW  Elec       q    Type
REMARK                         _______ _______ _______ _____ _____    ______ ____
ROOT
ATOM      1  N1  UNL     1      12.068 -21.394   1.482  0.00  0.00    -0.275 N 
ATOM      2  C5  UNL     1      12.647 -22.123   2.463  0.00  0.00    +0.264 A 
ATOM      3  O1  UNL     1      13.831 -22.551   2.408  0.00  0.00    -0.267 OA
ATOM      4  C6  UNL     1      11.768 -22.293   3.525  0.00  0.00    +0.075 A 
ATOM      5  C7  UNL     1      10.616 -21.631   3.187  0.00  0.00    +0.075 A 
ATOM      6  C8  UNL     1      10.832 -21.082   1.931  0.00  0.00    +0.264 A 
ATOM      7  O2  UNL     1      10.018 -20.366   1.287  0.00  0.00    -0.267 OA
ATOM      8  C9  UNL     1       9.538 -21.519   4.069  0.00  0.00    +0.050 A 
ATOM      9  C10 UNL     1       9.628 -22.180   5.338  0.00  0.00    +0.056 A 
ATOM     10  C11 UNL     1      10.841 -22.875   5.694  0.00  0.00    +0.056 A 
ATOM     11  C12 UNL     1      11.940 -22.896   4.774  0.00  0.00    +0.050 A 
ATOM     12  C13 UNL     1      10.901 -23.564   6.937  0.00  0.00    +0.196 A 
ATOM     13  O3  UNL     1      11.911 -24.257   7.240  0.00  0.00    -0.287 OA
ATOM     14  C14 UNL     1       9.826 -23.514   7.843  0.00  0.00    +0.033 A 
ATOM     15  C15 UNL     1       8.639 -22.834   7.495  0.00  0.00    +0.033 A 
ATOM     16  C16 UNL     1       8.529 -22.205   6.241  0.00  0.00    +0.196 A 
ATOM     17  O4  UNL     1       7.424 -21.686   5.922  0.00  0.00    -0.287 OA
ATOM     18  C17 UNL     1       7.562 -22.814   8.409  0.00  0.00    +0.012 A 
ATOM     19  C18 UNL     1       7.665 -23.452   9.645  0.00  0.00    +0.001 A 
ATOM     20  C19 UNL     1       8.836 -24.123   9.988  0.00  0.00    +0.001 A 
ATOM     21  C20 UNL     1       9.909 -24.158   9.098  0.00  0.00    +0.012 A 
ENDROOT
BRANCH   8  22
ATOM     22  N2  UNL     1       8.412 -20.711   3.698  0.00  0.00    -0.357 N 
ATOM     23  H10 UNL     1       8.052 -20.708   2.720  0.00  0.00    +0.142 HD
ATOM     24  H11 UNL     1       8.028 -19.997   4.357  0.00  0.00    +0.142 HD
ENDBRANCH   8  22
BRANCH  11  25
ATOM     25  N3  UNL     1      13.215 -23.464   5.107  0.00  0.00    -0.357 N 
ATOM     26  H12 UNL     1      13.772 -23.988   4.399  0.00  0.00    +0.142 HD
ATOM     27  H13 UNL     1      13.679 -23.236   6.015  0.00  0.00    +0.142 HD
ENDBRANCH  11  25
BRANCH   1  28
ATOM     28  C4  UNL     1      12.685 -20.954   0.228  0.00  0.00    +0.128 C 
BRANCH  28  29
ATOM     29  C3  UNL     1      13.419 -19.618   0.407  0.00  0.00    +0.021 C 
BRANCH  29  31
ATOM     30  C1  UNL     1      13.349 -17.125   0.014  0.00  0.00    +0.004 C 
ATOM     31  C2  UNL     1      12.728 -18.472  -0.345  0.00  0.00    -0.002 C 
ENDBRANCH  29  31
ENDBRANCH  28  29
ENDBRANCH   1  28
TORSDOF 5
ENDMDL
MODEL 9
REMARK minimizedAffinity -6.15787077
REMARK minimizedRMSD -1
REMARK  Name = /home/tchapet/Post-Doc/ARTICLES-DOSSIERS-DES-ARTICLES-EN-REDACTION/NOUVELS-AXES-DE-RECHERCHE-A-REGARDER-URGEMMENT/ARTICLES-EN-REDACTIONS/ARTICLE_MVOTO/Paper2_JCIM/docking_rerun/ligands/18506.pdb
REMARK  6 active torsions:
REMARK  status: ('A' for Active; 'I' for Inactive)
REMARK    1  A    between atoms: C1_1  and  C2_2
REMARK    2  A    between atoms: C2_2  and  C3_3
REMARK    3  A    between atoms: C3_3  and  C4_4
REMARK    4  A    between atoms: C4_4  and  N1_5
REMARK    5  A    between atoms: C9_12  and  N2_13
REMARK    6  A    between atoms: C12_16  and  N3_17
REMARK                            x       y       z     vdW  Elec       q    Type
REMARK                         _______ _______ _______ _____ _____    ______ ____
ROOT
ATOM      1  N1  UNL     1      -1.983 -13.758  16.159  0.00  0.00    -0.275 N 
ATOM      2  C5  UNL     1      -1.710 -14.156  14.897  0.00  0.00    +0.264 A 
ATOM      3  O1  UNL     1      -2.158 -13.578  13.871  0.00  0.00    -0.267 OA
ATOM      4  C6  UNL     1      -0.855 -15.251  14.906  0.00  0.00    +0.075 A 
ATOM      5  C7  UNL     1      -0.585 -15.522  16.223  0.00  0.00    +0.075 A 
ATOM      6  C8  UNL     1      -1.284 -14.584  16.969  0.00  0.00    +0.264 A 
ATOM      7  O2  UNL     1      -1.268 -14.478  18.225  0.00  0.00    -0.267 OA
ATOM      8  C9  UNL     1       0.320 -16.516  16.606  0.00  0.00    +0.050 A 
ATOM      9  C10 UNL     1       0.925 -17.315  15.580  0.00  0.00    +0.056 A 
ATOM     10  C11 UNL     1       0.642 -17.028  14.195  0.00  0.00    +0.056 A 
ATOM     11  C12 UNL     1      -0.242 -15.949  13.862  0.00  0.00    +0.050 A 
ATOM     12  C13 UNL     1       1.213 -17.856  13.190  0.00  0.00    +0.196 A 
ATOM     13  O3  UNL     1       0.914 -17.691  11.975  0.00  0.00    -0.287 OA
ATOM     14  C14 UNL     1       2.099 -18.895  13.526  0.00  0.00    +0.033 A 
ATOM     15  C15 UNL     1       2.377 -19.175  14.882  0.00  0.00    +0.033 A 
ATOM     16  C16 UNL     1       1.768 -18.416  15.897  0.00  0.00    +0.196 A 
ATOM     17  O4  UNL     1       1.962 -18.750  17.099  0.00  0.00    -0.287 OA
ATOM     18  C17 UNL     1       3.252 -20.238  15.202  0.00  0.00    +0.012 A 
ATOM     19  C18 UNL     1       3.843 -21.001  14.194  0.00  0.00    +0.001 A 
ATOM     20  C19 UNL     1       3.569 -20.724  12.857  0.00  0.00    +0.001 A 
ATOM     21  C20 UNL     1       2.704 -19.683  12.522  0.00  0.00    +0.012 A 
ENDROOT
BRANCH   8  22
ATOM     22  N2  UNL     1       0.648 -16.666  17.994  0.00  0.00    -0.357 N 
ATOM     23  H10 UNL     1      -0.082 -16.570  18.732  0.00  0.00    +0.142 HD
ATOM     24  H11 UNL     1       1.643 -16.722  18.304  0.00  0.00    +0.142 HD
ENDBRANCH   8  22
BRANCH  11  25
ATOM     25  N3  UNL     1      -0.476 -15.533  12.510  0.00  0.00    -0.357 N 
ATOM     26  H12 UNL     1      -1.421 -15.219  12.199  0.00  0.00    +0.142 HD
ATOM     27  H13 UNL     1       0.322 -15.388  11.851  0.00  0.00    +0.142 HD
ENDBRANCH  11  25
BRANCH   1  28
ATOM     28  C4  UNL     1      -2.797 -12.610  16.567  0.00  0.00    +0.128 C 
BRANCH  28  29
ATOM     29  C3  UNL     1      -1.974 -11.315  16.567  0.00  0.00    +0.021 C 
BRANCH  29  31
ATOM     30  C1  UNL     1      -0.101 -10.190  17.831  0.00  0.00    +0.004 C 
ATOM     31  C2  UNL     1      -1.388 -11.000  17.950  0.00  0.00    -0.002 C 
ENDBRANCH  29  31
ENDBRANCH  28  29
ENDBRANCH   1  28
TORSDOF 5
ENDMDL
