MODEL 1
REMARK minimizedAffinity -6.68064404
REMARK minimizedRMSD -1
REMARK  Name = /home/tchapet/Post-Doc/ARTICLES-DOSSIERS-DES-ARTICLES-EN-REDACTION/NOUVELS-AXES-DE-RECHERCHE-A-REGARDER-URGEMMENT/ARTICLES-EN-REDACTIONS/ARTICLE_MVOTO/Paper2_JCIM/docking_rerun/ligands/18506.pdb
REMARK  6 active torsions:
REMARK  status: ('A' for Active; 'I' for Inactive)
REMARK    1  A    between atoms: C1_1  and  C2_2
REMARK    2  A    between atoms: C2_2  and  C3_3
REMARK    3  A    between atoms: C3_3  and  C4_4
REMARK    4  A    between atoms: C4_4  and  N1_5
REMARK    5  A    between atoms: C9_12  and  N2_13
REMARK    6  A    between atoms: C12_16  and  N3_17
REMARK                            x       y       z     vdW  Elec       q    Type
REMARK                         _______ _______ _______ _____ _____    ______ ____
ROOT
ATOM      1  N1  UNL     1      18.364   6.783  14.207  0.00  0.00    -0.275 N 
ATOM      2  C5  UNL     1      18.075   7.493  13.095  0.00  0.00    +0.264 A 
ATOM      3  O1  UNL     1      18.473   8.673  12.897  0.00  0.00    -0.267 OA
ATOM      4  C6  UNL     1      17.318   6.732  12.213  0.00  0.00    +0.075 A 
ATOM      5  C7  UNL     1      17.152   5.505  12.804  0.00  0.00    +0.075 A 
ATOM      6  C8  UNL     1      17.812   5.563  14.023  0.00  0.00    +0.264 A 
ATOM      7  O2  UNL     1      17.920   4.617  14.850  0.00  0.00    -0.267 OA
ATOM      8  C9  UNL     1      16.507   4.450  12.153  0.00  0.00    +0.050 A 
ATOM      9  C10 UNL     1      15.948   4.692  10.856  0.00  0.00    +0.056 A 
ATOM     10  C11 UNL     1      16.124   5.983  10.235  0.00  0.00    +0.056 A 
ATOM     11  C12 UNL     1      16.856   7.005  10.924  0.00  0.00    +0.050 A 
ATOM     12  C13 UNL     1      15.525   6.224   8.967  0.00  0.00    +0.196 A 
ATOM     13  O3  UNL     1      15.582   7.368   8.438  0.00  0.00    -0.287 OA
ATOM     14  C14 UNL     1      14.832   5.205   8.289  0.00  0.00    +0.033 A 
ATOM     15  C15 UNL     1      14.660   3.943   8.897  0.00  0.00    +0.033 A 
ATOM     16  C16 UNL     1      15.181   3.702  10.181  0.00  0.00    +0.196 A 
ATOM     17  O4  UNL     1      14.931   2.596  10.735  0.00  0.00    -0.287 OA
ATOM     18  C17 UNL     1      13.941   2.939   8.210  0.00  0.00    +0.012 A 
ATOM     19  C18 UNL     1      13.411   3.184   6.943  0.00  0.00    +0.001 A 
ATOM     20  C19 UNL     1      13.580   4.430   6.344  0.00  0.00    +0.001 A 
ATOM     21  C20 UNL     1      14.282   5.435   7.008  0.00  0.00    +0.012 A 
ENDROOT
BRANCH   8  22
ATOM     22  N2  UNL     1      16.475   3.159  12.778  0.00  0.00    -0.357 N 
ATOM     23  H10 UNL     1      16.330   3.063  13.806  0.00  0.00    +0.142 HD
ATOM     24  H11 UNL     1      16.747   2.302  12.246  0.00  0.00    +0.142 HD
ENDBRANCH   8  22
BRANCH  11  25
ATOM     25  N3  UNL     1      17.171   8.267  10.320  0.00  0.00    -0.357 N 
ATOM     26  H12 UNL     1      17.159   9.148  10.878  0.00  0.00    +0.142 HD
ATOM     27  H13 UNL     1      17.566   8.313   9.354  0.00  0.00    +0.142 HD
ENDBRANCH  11  25
BRANCH   1  28
ATOM     28  C4  UNL     1      19.186   7.213  15.342  0.00  0.00    +0.128 C 
BRANCH  28  29
ATOM     29  C3  UNL     1      18.320   7.534  16.567  0.00  0.00    +0.021 C 
BRANCH  29  31
ATOM     30  C1  UNL     1      16.056   8.568  16.146  0.00  0.00    +0.004 C 
ATOM     31  C2  UNL     1      17.535   8.842  16.397  0.00  0.00    -0.002 C 
ENDBRANCH  29  31
ENDBRANCH  28  29
ENDBRANCH   1  28
TORSDOF 5
ENDMDL
MODEL 2
REMARK minimizedAffinity -6.62927008
REMARK minimizedRMSD -1
REMARK  Name = /home/tchapet/Post-Doc/ARTICLES-DOSSIERS-DES-ARTICLES-EN-REDACTION/NOUVELS-AXES-DE-RECHERCHE-A-REGARDER-URGEMMENT/ARTICLES-EN-REDACTIONS/ARTICLE_MVOTO/Paper2_JCIM/docking_rerun/ligands/18506.pdb
REMARK  6 active torsions:
REMARK  status: ('A' for Active; 'I' for Inactive)
REMARK    1  A    between atoms: C1_1  and  C2_2
REMARK    2  A    between atoms: C2_2  and  C3_3
REMARK    3  A    between atoms: C3_3  and  C4_4
REMARK    4  A    between atoms: C4_4  and  N1_5
REMARK    5  A    between atoms: C9_12  and  N2_13
REMARK    6  A    between atoms: C12_16  and  N3_17
REMARK                            x       y       z     vdW  Elec       q    Type
REMARK                         _______ _______ _______ _____ _____    ______ ____
ROOT
ATOM      1  N1  UNL     1     -18.852 -30.974  11.270  0.00  0.00    -0.275 N 
ATOM      2  C5  UNL     1     -18.171 -31.478  10.217  0.00  0.00    +0.264 A 
ATOM      3  O1  UNL     1     -17.053 -32.052  10.320  0.00  0.00    -0.267 OA
ATOM      4  C6  UNL     1     -18.889 -31.299   9.042  0.00  0.00    +0.075 A 
ATOM      5  C7  UNL     1     -20.059 -30.676   9.393  0.00  0.00    +0.075 A 
ATOM      6  C8  UNL     1     -20.012 -30.496  10.768  0.00  0.00    +0.264 A 
ATOM      7  O2  UNL     1     -20.921 -29.986  11.478  0.00  0.00    -0.267 OA
ATOM      8  C9  UNL     1     -21.070 -30.417   8.463  0.00  0.00    +0.050 A 
ATOM      9  C10 UNL     1     -20.834 -30.758   7.091  0.00  0.00    +0.056 A 
ATOM     10  C11 UNL     1     -19.603 -31.416   6.723  0.00  0.00    +0.056 A 
ATOM     11  C12 UNL     1     -18.633 -31.718   7.734  0.00  0.00    +0.050 A 
ATOM     12  C13 UNL     1     -19.362 -31.708   5.352  0.00  0.00    +0.196 A 
ATOM     13  O3  UNL     1     -18.259 -32.198   4.984  0.00  0.00    -0.287 OA
ATOM     14  C14 UNL     1     -20.332 -31.431   4.372  0.00  0.00    +0.033 A 
ATOM     15  C15 UNL     1     -21.536 -30.788   4.732  0.00  0.00    +0.033 A 
ATOM     16  C16 UNL     1     -21.767 -30.424   6.071  0.00  0.00    +0.196 A 
ATOM     17  O4  UNL     1     -22.810 -29.768   6.346  0.00  0.00    -0.287 OA
ATOM     18  C17 UNL     1     -22.490 -30.497   3.731  0.00  0.00    +0.012 A 
ATOM     19  C18 UNL     1     -22.253 -30.844   2.400  0.00  0.00    +0.001 A 
ATOM     20  C19 UNL     1     -21.065 -31.478   2.045  0.00  0.00    +0.001 A 
ATOM     21  C20 UNL     1     -20.109 -31.769   3.019  0.00  0.00    +0.012 A 
ENDROOT
BRANCH   8  22
ATOM     22  N2  UNL     1     -22.316 -29.872   8.919  0.00  0.00    -0.357 N 
ATOM     23  H10 UNL     1     -22.344 -29.142   9.662  0.00  0.00    +0.142 HD
ATOM     24  H11 UNL     1     -23.223 -30.302   8.629  0.00  0.00    +0.142 HD
ENDBRANCH   8  22
BRANCH  11  25
ATOM     25  N3  UNL     1     -17.444 -32.473   7.461  0.00  0.00    -0.357 N 
ATOM     26  H12 UNL     1     -16.540 -32.239   7.925  0.00  0.00    +0.142 HD
ATOM     27  H13 UNL     1     -17.491 -33.362   6.914  0.00  0.00    +0.142 HD
ENDBRANCH  11  25
BRANCH   1  28
ATOM     28  C4  UNL     1     -18.457 -31.017  12.681  0.00  0.00    +0.128 C 
BRANCH  28  29
ATOM     29  C3  UNL     1     -17.757 -29.718  13.104  0.00  0.00    +0.021 C 
BRANCH  29  31
ATOM     30  C1  UNL     1     -15.695 -31.124  13.479  0.00  0.00    +0.004 C 
ATOM     31  C2  UNL     1     -16.233 -29.801  12.944  0.00  0.00    -0.002 C 
ENDBRANCH  29  31
ENDBRANCH  28  29
ENDBRANCH   1  28
TORSDOF 5
ENDMDL
MODEL 3
REMARK minimizedAffinity -6.45972109
REMARK minimizedRMSD -1
REMARK  Name = /home/tchapet/Post-Doc/ARTICLES-DOSSIERS-DES-ARTICLES-EN-REDACTION/NOUVELS-AXES-DE-RECHERCHE-A-REGARDER-URGEMMENT/ARTICLES-EN-REDACTIONS/ARTICLE_MVOTO/Paper2_JCIM/docking_rerun/ligands/18506.pdb
REMARK  6 active torsions:
REMARK  status: ('A' for Active; 'I' for Inactive)
REMARK    1  A    between atoms: C1_1  and  C2_2
REMARK    2  A    between atoms: C2_2  and  C3_3
REMARK    3  A    between atoms: C3_3  and  C4_4
REMARK    4  A    between atoms: C4_4  and  N1_5
REMARK    5  A    between atoms: C9_12  and  N2_13
REMARK    6  A    between atoms: C12_16  and  N3_17
REMARK                            x       y       z     vdW  Elec       q    Type
REMARK                         _______ _______ _______ _____ _____    ______ ____
ROOT
ATOM      1  N1  UNL     1      -1.236 -10.220   6.596  0.00  0.00    -0.275 N 
ATOM      2  C5  UNL     1      -0.551  -9.088   6.872  0.00  0.00    +0.264 A 
ATOM      3  O1  UNL     1      -0.220  -8.740   8.037  0.00  0.00    -0.267 OA
ATOM      4  C6  UNL     1      -0.249  -8.404   5.702  0.00  0.00    +0.075 A 
ATOM      5  C7  UNL     1      -0.756  -9.154   4.671  0.00  0.00    +0.075 A 
ATOM      6  C8  UNL     1      -1.349 -10.268   5.250  0.00  0.00    +0.264 A 
ATOM      7  O2  UNL     1      -1.898 -11.217   4.630  0.00  0.00    -0.267 OA
ATOM      8  C9  UNL     1      -0.558  -8.806   3.333  0.00  0.00    +0.050 A 
ATOM      9  C10 UNL     1       0.141  -7.587   3.044  0.00  0.00    +0.056 A 
ATOM     10  C11 UNL     1       0.675  -6.800   4.128  0.00  0.00    +0.056 A 
ATOM     11  C12 UNL     1       0.500  -7.245   5.480  0.00  0.00    +0.050 A 
ATOM     12  C13 UNL     1       1.327  -5.571   3.831  0.00  0.00    +0.196 A 
ATOM     13  O3  UNL     1       1.724  -4.813   4.759  0.00  0.00    -0.287 OA
ATOM     14  C14 UNL     1       1.516  -5.157   2.500  0.00  0.00    +0.033 A 
ATOM     15  C15 UNL     1       0.994  -5.928   1.439  0.00  0.00    +0.033 A 
ATOM     16  C16 UNL     1       0.283  -7.111   1.711  0.00  0.00    +0.196 A 
ATOM     17  O4  UNL     1      -0.251  -7.728   0.749  0.00  0.00    -0.287 OA
ATOM     18  C17 UNL     1       1.175  -5.485   0.110  0.00  0.00    +0.012 A 
ATOM     19  C18 UNL     1       1.866  -4.303  -0.159  0.00  0.00    +0.001 A 
ATOM     20  C19 UNL     1       2.381  -3.543   0.888  0.00  0.00    +0.001 A 
ATOM     21  C20 UNL     1       2.208  -3.961   2.207  0.00  0.00    +0.012 A 
ENDROOT
BRANCH   8  22
ATOM     22  N2  UNL     1      -1.010  -9.698   2.304  0.00  0.00    -0.357 N 
ATOM     23  H10 UNL     1      -1.916 -10.204   2.392  0.00  0.00    +0.142 HD
ATOM     24  H11 UNL     1      -0.375  -9.976   1.523  0.00  0.00    +0.142 HD
ENDBRANCH   8  22
BRANCH  11  25
ATOM     25  N3  UNL     1       1.103  -6.578   6.597  0.00  0.00    -0.357 N 
ATOM     26  H12 UNL     1       0.600  -6.487   7.505  0.00  0.00    +0.142 HD
ATOM     27  H13 UNL     1       2.111  -6.305   6.574  0.00  0.00    +0.142 HD
ENDBRANCH  11  25
BRANCH   1  28
ATOM     28  C4  UNL     1      -1.685 -11.237   7.551  0.00  0.00    +0.128 C 
BRANCH  28  29
ATOM     29  C3  UNL     1      -0.610 -12.309   7.771  0.00  0.00    +0.021 C 
BRANCH  29  31
ATOM     30  C1  UNL     1      -1.464 -14.274   6.438  0.00  0.00    +0.004 C 
ATOM     31  C2  UNL     1      -1.204 -13.722   7.836  0.00  0.00    -0.002 C 
ENDBRANCH  29  31
ENDBRANCH  28  29
ENDBRANCH   1  28
TORSDOF 5
ENDMDL
MODEL 4
REMARK minimizedAffinity -6.43703699
REMARK minimizedRMSD -1
REMARK  Name = /home/tchapet/Post-Doc/ARTICLES-DOSSIERS-DES-ARTICLES-EN-REDACTION/NOUVELS-AXES-DE-RECHERCHE-A-REGARDER-URGEMMENT/ARTICLES-EN-REDACTIONS/ARTICLE_MVOTO/Paper2_JCIM/docking_rerun/ligands/18506.pdb
REMARK  6 active torsions:
REMARK  status: ('A' for Active; 'I' for Inactive)
REMARK    1  A    between atoms: C1_1  and  C2_2
REMARK    2  A    between atoms: C2_2  and  C3_3
REMARK    3  A    between atoms: C3_3  and  C4_4
REMARK    4  A    between atoms: C4_4  and  N1_5
REMARK    5  A    between atoms: C9_12  and  N2_13
REMARK    6  A    between atoms: C12_16  and  N3_17
REMARK                            x       y       z     vdW  Elec       q    Type
REMARK                         _______ _______ _______ _____ _____    ______ ____
ROOT
ATOM      1  N1  UNL     1      -1.145 -10.254   6.570  0.00  0.00    -0.275 N 
ATOM      2  C5  UNL     1      -1.237 -10.303   5.222  0.00  0.00    +0.264 A 
ATOM      3  O1  UNL     1      -1.836 -11.219   4.597  0.00  0.00    -0.267 OA
ATOM      4  C6  UNL     1      -0.614  -9.200   4.652  0.00  0.00    +0.075 A 
ATOM      5  C7  UNL     1      -0.137  -8.443   5.690  0.00  0.00    +0.075 A 
ATOM      6  C8  UNL     1      -0.485  -9.110   6.857  0.00  0.00    +0.264 A 
ATOM      7  O2  UNL     1      -0.255  -8.714   8.031  0.00  0.00    -0.267 OA
ATOM      8  C9  UNL     1       0.476  -7.204   5.485  0.00  0.00    +0.050 A 
ATOM      9  C10 UNL     1       0.667  -6.756   4.136  0.00  0.00    +0.056 A 
ATOM     10  C11 UNL     1       0.163  -7.553   3.044  0.00  0.00    +0.056 A 
ATOM     11  C12 UNL     1      -0.520  -8.782   3.322  0.00  0.00    +0.050 A 
ATOM     12  C13 UNL     1       0.398  -7.119   1.710  0.00  0.00    +0.196 A 
ATOM     13  O3  UNL     1       0.053  -7.837   0.731  0.00  0.00    -0.287 OA
ATOM     14  C14 UNL     1       1.046  -5.898   1.450  0.00  0.00    +0.033 A 
ATOM     15  C15 UNL     1       1.538  -5.118   2.519  0.00  0.00    +0.033 A 
ATOM     16  C16 UNL     1       1.381  -5.561   3.845  0.00  0.00    +0.196 A 
ATOM     17  O4  UNL     1       1.913  -4.889   4.772  0.00  0.00    -0.287 OA
ATOM     18  C17 UNL     1       2.206  -3.905   2.238  0.00  0.00    +0.012 A 
ATOM     19  C18 UNL     1       2.376  -3.475   0.922  0.00  0.00    +0.001 A 
ATOM     20  C19 UNL     1       1.891  -4.244  -0.132  0.00  0.00    +0.001 A 
ATOM     21  C20 UNL     1       1.233  -5.447   0.125  0.00  0.00    +0.012 A 
ENDROOT
BRANCH   8  22
ATOM     22  N2  UNL     1       0.843  -6.408   6.621  0.00  0.00    -0.357 N 
ATOM     23  H10 UNL     1       1.243  -6.846   7.478  0.00  0.00    +0.142 HD
ATOM     24  H11 UNL     1       0.576  -5.400   6.674  0.00  0.00    +0.142 HD
ENDBRANCH   8  22
BRANCH  11  25
ATOM     25  N3  UNL     1      -1.148  -9.564   2.296  0.00  0.00    -0.357 N 
ATOM     26  H12 UNL     1      -1.128 -10.606   2.326  0.00  0.00    +0.142 HD
ATOM     27  H13 UNL     1      -1.767  -9.113   1.585  0.00  0.00    +0.142 HD
ENDBRANCH  11  25
BRANCH   1  28
ATOM     28  C4  UNL     1      -1.722 -11.199   7.530  0.00  0.00    +0.128 C 
BRANCH  28  29
ATOM     29  C3  UNL     1      -0.770 -12.371   7.799  0.00  0.00    +0.021 C 
BRANCH  29  31
ATOM     30  C1  UNL     1      -1.347 -14.259   6.226  0.00  0.00    +0.004 C 
ATOM     31  C2  UNL     1      -1.467 -13.731   7.652  0.00  0.00    -0.002 C 
ENDBRANCH  29  31
ENDBRANCH  28  29
ENDBRANCH   1  28
TORSDOF 5
ENDMDL
MODEL 5
REMARK minimizedAffinity -6.42270041
REMARK minimizedRMSD -1
REMARK  Name = /home/tchapet/Post-Doc/ARTICLES-DOSSIERS-DES-ARTICLES-EN-REDACTION/NOUVELS-AXES-DE-RECHERCHE-A-REGARDER-URGEMMENT/ARTICLES-EN-REDACTIONS/ARTICLE_MVOTO/Paper2_JCIM/docking_rerun/ligands/18506.pdb
REMARK  6 active torsions:
REMARK  status: ('A' for Active; 'I' for Inactive)
REMARK    1  A    between atoms: C1_1  and  C2_2
REMARK    2  A    between atoms: C2_2  and  C3_3
REMARK    3  A    between atoms: C3_3  and  C4_4
REMARK    4  A    between atoms: C4_4  and  N1_5
REMARK    5  A    between atoms: C9_12  and  N2_13
REMARK    6  A    between atoms: C12_16  and  N3_17
REMARK                            x       y       z     vdW  Elec       q    Type
REMARK                         _______ _______ _______ _____ _____    ______ ____
ROOT
ATOM      1  N1  UNL     1      18.775   6.505  14.110  0.00  0.00    -0.275 N 
ATOM      2  C5  UNL     1      18.170   5.311  13.924  0.00  0.00    +0.264 A 
ATOM      3  O1  UNL     1      18.209   4.370  14.761  0.00  0.00    -0.267 OA
ATOM      4  C6  UNL     1      17.490   5.294  12.712  0.00  0.00    +0.075 A 
ATOM      5  C7  UNL     1      17.675   6.529  12.146  0.00  0.00    +0.075 A 
ATOM      6  C8  UNL     1      18.460   7.254  13.031  0.00  0.00    +0.264 A 
ATOM      7  O2  UNL     1      18.822   8.453  12.886  0.00  0.00    -0.267 OA
ATOM      8  C9  UNL     1      17.053   6.898  10.950  0.00  0.00    +0.050 A 
ATOM      9  C10 UNL     1      16.254   5.920  10.271  0.00  0.00    +0.056 A 
ATOM     10  C11 UNL     1      16.059   4.621  10.868  0.00  0.00    +0.056 A 
ATOM     11  C12 UNL     1      16.667   4.325  12.132  0.00  0.00    +0.050 A 
ATOM     12  C13 UNL     1      15.301   3.645  10.162  0.00  0.00    +0.196 A 
ATOM     13  O3  UNL     1      15.188   2.472  10.612  0.00  0.00    -0.287 OA
ATOM     14  C14 UNL     1      14.688   3.955   8.935  0.00  0.00    +0.033 A 
ATOM     15  C15 UNL     1      14.878   5.226   8.351  0.00  0.00    +0.033 A 
ATOM     16  C16 UNL     1      15.682   6.184   8.995  0.00  0.00    +0.196 A 
ATOM     17  O4  UNL     1      15.909   7.276   8.404  0.00  0.00    -0.287 OA
ATOM     18  C17 UNL     1      14.272   5.512   7.107  0.00  0.00    +0.012 A 
ATOM     19  C18 UNL     1      13.488   4.555   6.461  0.00  0.00    +0.001 A 
ATOM     20  C19 UNL     1      13.301   3.302   7.038  0.00  0.00    +0.001 A 
ATOM     21  C20 UNL     1      13.895   2.999   8.263  0.00  0.00    +0.012 A 
ENDROOT
BRANCH   8  22
ATOM     22  N2  UNL     1      17.191   8.244  10.476  0.00  0.00    -0.357 N 
ATOM     23  H10 UNL     1      18.098   8.752  10.557  0.00  0.00    +0.142 HD
ATOM     24  H11 UNL     1      16.354   8.795  10.183  0.00  0.00    +0.142 HD
ENDBRANCH   8  22
BRANCH  11  25
ATOM     25  N3  UNL     1      16.421   3.102  12.839  0.00  0.00    -0.357 N 
ATOM     26  H12 UNL     1      17.181   2.626  13.372  0.00  0.00    +0.142 HD
ATOM     27  H13 UNL     1      15.447   2.744  12.963  0.00  0.00    +0.142 HD
ENDBRANCH  11  25
BRANCH   1  28
ATOM     28  C4  UNL     1      19.539   6.934  15.285  0.00  0.00    +0.128 C 
BRANCH  28  29
ATOM     29  C3  UNL     1      18.614   7.238  16.471  0.00  0.00    +0.021 C 
BRANCH  29  31
ATOM     30  C1  UNL     1      16.384   8.337  16.036  0.00  0.00    +0.004 C 
ATOM     31  C2  UNL     1      17.869   8.568  16.300  0.00  0.00    -0.002 C 
ENDBRANCH  29  31
ENDBRANCH  28  29
ENDBRANCH   1  28
TORSDOF 5
ENDMDL
MODEL 6
REMARK minimizedAffinity -6.34858418
REMARK minimizedRMSD -1
REMARK  Name = /home/tchapet/Post-Doc/ARTICLES-DOSSIERS-DES-ARTICLES-EN-REDACTION/NOUVELS-AXES-DE-RECHERCHE-A-REGARDER-URGEMMENT/ARTICLES-EN-REDACTIONS/ARTICLE_MVOTO/Paper2_JCIM/docking_rerun/ligands/18506.pdb
REMARK  6 active torsions:
REMARK  status: ('A' for Active; 'I' for Inactive)
REMARK    1  A    between atoms: C1_1  and  C2_2
REMARK    2  A    between atoms: C2_2  and  C3_3
REMARK    3  A    between atoms: C3_3  and  C4_4
REMARK    4  A    between atoms: C4_4  and  N1_5
REMARK    5  A    between atoms: C9_12  and  N2_13
REMARK    6  A    between atoms: C12_16  and  N3_17
REMARK                            x       y       z     vdW  Elec       q    Type
REMARK                         _______ _______ _______ _____ _____    ______ ____
ROOT
ATOM      1  N1  UNL     1     -18.758 -31.210  11.338  0.00  0.00    -0.275 N 
ATOM      2  C5  UNL     1     -19.938 -30.702  10.919  0.00  0.00    +0.264 A 
ATOM      3  O1  UNL     1     -20.761 -30.128  11.682  0.00  0.00    -0.267 OA
ATOM      4  C6  UNL     1     -20.084 -30.878   9.549  0.00  0.00    +0.075 A 
ATOM      5  C7  UNL     1     -18.944 -31.503   9.113  0.00  0.00    +0.075 A 
ATOM      6  C8  UNL     1     -18.144 -31.687  10.233  0.00  0.00    +0.264 A 
ATOM      7  O2  UNL     1     -16.992 -32.199  10.242  0.00  0.00    -0.267 OA
ATOM      8  C9  UNL     1     -18.709 -31.760   7.760  0.00  0.00    +0.050 A 
ATOM      9  C10 UNL     1     -19.731 -31.414   6.816  0.00  0.00    +0.056 A 
ATOM     10  C11 UNL     1     -20.930 -30.755   7.275  0.00  0.00    +0.056 A 
ATOM     11  C12 UNL     1     -21.083 -30.455   8.668  0.00  0.00    +0.050 A 
ATOM     12  C13 UNL     1     -21.955 -30.458   6.334  0.00  0.00    +0.196 A 
ATOM     13  O3  UNL     1     -23.053 -29.966   6.715  0.00  0.00    -0.287 OA
ATOM     14  C14 UNL     1     -21.783 -30.733   4.966  0.00  0.00    +0.033 A 
ATOM     15  C15 UNL     1     -20.610 -31.378   4.517  0.00  0.00    +0.033 A 
ATOM     16  C16 UNL     1     -19.612 -31.746   5.438  0.00  0.00    +0.196 A 
ATOM     17  O4  UNL     1     -18.619 -32.403   5.020  0.00  0.00    -0.287 OA
ATOM     18  C17 UNL     1     -20.464 -31.666   3.142  0.00  0.00    +0.012 A 
ATOM     19  C18 UNL     1     -21.461 -31.315   2.231  0.00  0.00    +0.001 A 
ATOM     20  C19 UNL     1     -22.618 -30.680   2.674  0.00  0.00    +0.001 A 
ATOM     21  C20 UNL     1     -22.783 -30.391   4.029  0.00  0.00    +0.012 A 
ENDROOT
BRANCH   8  22
ATOM     22  N2  UNL     1     -17.444 -32.306   7.361  0.00  0.00    -0.357 N 
ATOM     23  H10 UNL     1     -16.971 -33.039   7.932  0.00  0.00    +0.142 HD
ATOM     24  H11 UNL     1     -16.900 -31.876   6.580  0.00  0.00    +0.142 HD
ENDBRANCH   8  22
BRANCH  11  25
ATOM     25  N3  UNL     1     -22.190 -29.699   9.177  0.00  0.00    -0.357 N 
ATOM     26  H12 UNL     1     -22.625 -29.933  10.095  0.00  0.00    +0.142 HD
ATOM     27  H13 UNL     1     -22.484 -28.808   8.716  0.00  0.00    +0.142 HD
ENDBRANCH  11  25
BRANCH   1  28
ATOM     28  C4  UNL     1     -18.212 -31.171  12.698  0.00  0.00    +0.128 C 
BRANCH  28  29
ATOM     29  C3  UNL     1     -17.639 -29.787  13.029  0.00  0.00    +0.021 C 
BRANCH  29  31
ATOM     30  C1  UNL     1     -15.587 -31.221  13.348  0.00  0.00    +0.004 C 
ATOM     31  C2  UNL     1     -16.108 -29.804  13.136  0.00  0.00    -0.002 C 
ENDBRANCH  29  31
ENDBRANCH  28  29
ENDBRANCH   1  28
TORSDOF 5
ENDMDL
MODEL 7
REMARK minimizedAffinity -6.30867386
REMARK minimizedRMSD -1
REMARK  Name = /home/tchapet/Post-Doc/ARTICLES-DOSSIERS-DES-ARTICLES-EN-REDACTION/NOUVELS-AXES-DE-RECHERCHE-A-REGARDER-URGEMMENT/ARTICLES-EN-REDACTIONS/ARTICLE_MVOTO/Paper2_JCIM/docking_rerun/ligands/18506.pdb
REMARK  6 active torsions:
REMARK  status: ('A' for Active; 'I' for Inactive)
REMARK    1  A    between atoms: C1_1  and  C2_2
REMARK    2  A    between atoms: C2_2  and  C3_3
REMARK    3  A    between atoms: C3_3  and  C4_4
REMARK    4  A    between atoms: C4_4  and  N1_5
REMARK    5  A    between atoms: C9_12  and  N2_13
REMARK    6  A    between atoms: C12_16  and  N3_17
REMARK                            x       y       z     vdW  Elec       q    Type
REMARK                         _______ _______ _______ _____ _____    ______ ____
ROOT
ATOM      1  N1  UNL     1     -19.881 -31.527   3.602  0.00  0.00    -0.275 N 
ATOM      2  C5  UNL     1     -18.924 -31.993   4.435  0.00  0.00    +0.264 A 
ATOM      3  O1  UNL     1     -17.873 -32.565   4.040  0.00  0.00    -0.267 OA
ATOM      4  C6  UNL     1     -19.254 -31.721   5.757  0.00  0.00    +0.075 A 
ATOM      5  C7  UNL     1     -20.451 -31.052   5.728  0.00  0.00    +0.075 A 
ATOM      6  C8  UNL     1     -20.807 -30.939   4.391  0.00  0.00    +0.264 A 
ATOM      7  O2  UNL     1     -21.831 -30.354   3.947  0.00  0.00    -0.267 OA
ATOM      8  C9  UNL     1     -21.044 -30.542   6.886  0.00  0.00    +0.050 A 
ATOM      9  C10 UNL     1     -20.404 -30.795   8.145  0.00  0.00    +0.056 A 
ATOM     10  C11 UNL     1     -19.145 -31.498   8.174  0.00  0.00    +0.056 A 
ATOM     11  C12 UNL     1     -18.550 -31.936   6.945  0.00  0.00    +0.050 A 
ATOM     12  C13 UNL     1     -18.543 -31.781   9.431  0.00  0.00    +0.196 A 
ATOM     13  O3  UNL     1     -17.490 -32.474   9.498  0.00  0.00    -0.287 OA
ATOM     14  C14 UNL     1     -19.122 -31.324  10.629  0.00  0.00    +0.033 A 
ATOM     15  C15 UNL     1     -20.354 -30.636  10.600  0.00  0.00    +0.033 A 
ATOM     16  C16 UNL     1     -21.005 -30.406   9.374  0.00  0.00    +0.196 A 
ATOM     17  O4  UNL     1     -22.148 -29.871   9.389  0.00  0.00    -0.287 OA
ATOM     18  C17 UNL     1     -20.932 -30.204  11.815  0.00  0.00    +0.012 A 
ATOM     19  C18 UNL     1     -20.294 -30.446  13.032  0.00  0.00    +0.001 A 
ATOM     20  C19 UNL     1     -19.079 -31.126  13.060  0.00  0.00    +0.001 A 
ATOM     21  C20 UNL     1     -18.496 -31.565  11.872  0.00  0.00    +0.012 A 
ENDROOT
BRANCH   8  22
ATOM     22  N2  UNL     1     -22.233 -29.748   6.772  0.00  0.00    -0.357 N 
ATOM     23  H10 UNL     1     -22.980 -29.994   6.088  0.00  0.00    +0.142 HD
ATOM     24  H11 UNL     1     -22.306 -28.825   7.256  0.00  0.00    +0.142 HD
ENDBRANCH   8  22
BRANCH  11  25
ATOM     25  N3  UNL     1     -17.248 -32.534   6.888  0.00  0.00    -0.357 N 
ATOM     26  H12 UNL     1     -17.043 -33.314   6.227  0.00  0.00    +0.142 HD
ATOM     27  H13 UNL     1     -16.441 -32.104   7.393  0.00  0.00    +0.142 HD
ENDBRANCH  11  25
BRANCH   1  28
ATOM     28  C4  UNL     1     -19.873 -31.568   2.138  0.00  0.00    +0.128 C 
BRANCH  28  29
ATOM     29  C3  UNL     1     -18.835 -30.599   1.558  0.00  0.00    +0.021 C 
BRANCH  29  31
ATOM     30  C1  UNL     1     -18.372 -28.551   2.959  0.00  0.00    +0.004 C 
ATOM     31  C2  UNL     1     -19.202 -29.131   1.818  0.00  0.00    -0.002 C 
ENDBRANCH  29  31
ENDBRANCH  28  29
ENDBRANCH   1  28
TORSDOF 5
ENDMDL
MODEL 8
REMARK minimizedAffinity -6.2213273
REMARK minimizedRMSD -1
REMARK  Name = /home/tchapet/Post-Doc/ARTICLES-DOSSIERS-DES-ARTICLES-EN-REDACTION/NOUVELS-AXES-DE-RECHERCHE-A-REGARDER-URGEMMENT/ARTICLES-EN-REDACTIONS/ARTICLE_MVOTO/Paper2_JCIM/docking_rerun/ligands/18506.pdb
REMARK  6 active torsions:
REMARK  status: ('A' for Active; 'I' for Inactive)
REMARK    1  A    between atoms: C1_1  and  C2_2
REMARK    2  A    between atoms: C2_2  and  C3_3
REMARK    3  A    between atoms: C3_3  and  C4_4
REMARK    4  A    between atoms: C4_4  and  N1_5
REMARK    5  A    between atoms: C9_12  and  N2_13
REMARK    6  A    between atoms: C12_16  and  N3_17
REMARK                            x       y       z     vdW  Elec       q    Type
REMARK                         _______ _______ _______ _____ _____    ______ ____
ROOT
ATOM      1  N1  UNL     1     -26.493 -33.381   1.867  0.00  0.00    -0.275 N 
ATOM      2  C5  UNL     1     -25.284 -33.886   1.535  0.00  0.00    +0.264 A 
ATOM      3  O1  UNL     1     -25.122 -35.016   1.001  0.00  0.00    -0.267 OA
ATOM      4  C6  UNL     1     -24.278 -32.977   1.838  0.00  0.00    +0.075 A 
ATOM      5  C7  UNL     1     -24.898 -31.871   2.359  0.00  0.00    +0.075 A 
ATOM      6  C8  UNL     1     -26.259 -32.144   2.357  0.00  0.00    +0.264 A 
ATOM      7  O2  UNL     1     -27.171 -31.358   2.729  0.00  0.00    -0.267 OA
ATOM      8  C9  UNL     1     -24.191 -30.713   2.696  0.00  0.00    +0.050 A 
ATOM      9  C10 UNL     1     -22.764 -30.722   2.550  0.00  0.00    +0.056 A 
ATOM     10  C11 UNL     1     -22.113 -31.886   2.000  0.00  0.00    +0.056 A 
ATOM     11  C12 UNL     1     -22.900 -33.019   1.607  0.00  0.00    +0.050 A 
ATOM     12  C13 UNL     1     -20.694 -31.899   1.902  0.00  0.00    +0.196 A 
ATOM     13  O3  UNL     1     -20.087 -32.935   1.512  0.00  0.00    -0.287 OA
ATOM     14  C14 UNL     1     -19.934 -30.773   2.265  0.00  0.00    +0.033 A 
ATOM     15  C15 UNL     1     -20.572 -29.634   2.803  0.00  0.00    +0.033 A 
ATOM     16  C16 UNL     1     -21.968 -29.624   2.976  0.00  0.00    +0.196 A 
ATOM     17  O4  UNL     1     -22.497 -28.629   3.545  0.00  0.00    -0.287 OA
ATOM     18  C17 UNL     1     -19.789 -28.521   3.183  0.00  0.00    +0.012 A 
ATOM     19  C18 UNL     1     -18.403 -28.538   3.026  0.00  0.00    +0.001 A 
ATOM     20  C19 UNL     1     -17.775 -29.662   2.496  0.00  0.00    +0.001 A 
ATOM     21  C20 UNL     1     -18.529 -30.773   2.120  0.00  0.00    +0.012 A 
ENDROOT
BRANCH   8  22
ATOM     22  N2  UNL     1     -24.915 -29.550   3.121  0.00  0.00    -0.357 N 
ATOM     23  H10 UNL     1     -25.746 -29.633   3.745  0.00  0.00    +0.142 HD
ATOM     24  H11 UNL     1     -24.721 -28.616   2.696  0.00  0.00    +0.142 HD
ENDBRANCH   8  22
BRANCH  11  25
ATOM     25  N3  UNL     1     -22.336 -34.159   0.947  0.00  0.00    -0.357 N 
ATOM     26  H12 UNL     1     -22.673 -35.124   1.155  0.00  0.00    +0.142 HD
ATOM     27  H13 UNL     1     -21.686 -34.039   0.137  0.00  0.00    +0.142 HD
ENDBRANCH  11  25
BRANCH   1  28
ATOM     28  C4  UNL     1     -27.801 -34.008   1.654  0.00  0.00    +0.128 C 
BRANCH  28  29
ATOM     29  C3  UNL     1     -28.524 -33.394   0.448  0.00  0.00    +0.021 C 
BRANCH  29  31
ATOM     30  C1  UNL     1     -27.131 -32.448  -1.432  0.00  0.00    +0.004 C 
ATOM     31  C2  UNL     1     -27.807 -33.696  -0.875  0.00  0.00    -0.002 C 
ENDBRANCH  29  31
ENDBRANCH  28  29
ENDBRANCH   1  28
TORSDOF 5
ENDMDL
MODEL 9
REMARK minimizedAffinity -6.15817642
REMARK minimizedRMSD -1
REMARK  Name = /home/tchapet/Post-Doc/ARTICLES-DOSSIERS-DES-ARTICLES-EN-REDACTION/NOUVELS-AXES-DE-RECHERCHE-A-REGARDER-URGEMMENT/ARTICLES-EN-REDACTIONS/ARTICLE_MVOTO/Paper2_JCIM/docking_rerun/ligands/18506.pdb
REMARK  6 active torsions:
REMARK  status: ('A' for Active; 'I' for Inactive)
REMARK    1  A    between atoms: C1_1  and  C2_2
REMARK    2  A    between atoms: C2_2  and  C3_3
REMARK    3  A    between atoms: C3_3  and  C4_4
REMARK    4  A    between atoms: C4_4  and  N1_5
REMARK    5  A    between atoms: C9_12  and  N2_13
REMARK    6  A    between atoms: C12_16  and  N3_17
REMARK                            x       y       z     vdW  Elec       q    Type
REMARK                         _______ _______ _______ _____ _____    ______ ____
ROOT
ATOM      1  N1  UNL     1     -20.150 -31.349   4.149  0.00  0.00    -0.275 N 
ATOM      2  C5  UNL     1     -20.943 -30.761   5.073  0.00  0.00    +0.264 A 
ATOM      3  O1  UNL     1     -22.043 -30.210   4.799  0.00  0.00    -0.267 OA
ATOM      4  C6  UNL     1     -20.387 -30.884   6.340  0.00  0.00    +0.075 A 
ATOM      5  C7  UNL     1     -19.219 -31.586   6.186  0.00  0.00    +0.075 A 
ATOM      6  C8  UNL     1     -19.104 -31.865   4.831  0.00  0.00    +0.264 A 
ATOM      7  O2  UNL     1     -18.178 -32.528   4.290  0.00  0.00    -0.267 OA
ATOM      8  C9  UNL     1     -18.435 -31.971   7.277  0.00  0.00    +0.050 A 
ATOM      9  C10 UNL     1     -18.842 -31.554   8.587  0.00  0.00    +0.056 A 
ATOM     10  C11 UNL     1     -20.072 -30.817   8.748  0.00  0.00    +0.056 A 
ATOM     11  C12 UNL     1     -20.870 -30.511   7.597  0.00  0.00    +0.050 A 
ATOM     12  C13 UNL     1     -20.441 -30.370  10.047  0.00  0.00    +0.196 A 
ATOM     13  O3  UNL     1     -21.461 -29.645  10.211  0.00  0.00    -0.287 OA
ATOM     14  C14 UNL     1     -19.664 -30.699  11.173  0.00  0.00    +0.033 A 
ATOM     15  C15 UNL     1     -18.461 -31.421  11.014  0.00  0.00    +0.033 A 
ATOM     16  C16 UNL     1     -18.038 -31.812   9.731  0.00  0.00    +0.196 A 
ATOM     17  O4  UNL     1     -16.914 -32.373   9.613  0.00  0.00    -0.287 OA
ATOM     18  C17 UNL     1     -17.683 -31.722  12.154  0.00  0.00    +0.012 A 
ATOM     19  C18 UNL     1     -18.095 -31.320  13.425  0.00  0.00    +0.001 A 
ATOM     20  C19 UNL     1     -19.281 -30.608  13.580  0.00  0.00    +0.001 A 
ATOM     21  C20 UNL     1     -20.061 -30.296  12.467  0.00  0.00    +0.012 A 
ENDROOT
BRANCH   8  22
ATOM     22  N2  UNL     1     -17.291 -32.807   7.055  0.00  0.00    -0.357 N 
ATOM     23  H10 UNL     1     -16.673 -32.665   6.227  0.00  0.00    +0.142 HD
ATOM     24  H11 UNL     1     -17.140 -33.668   7.627  0.00  0.00    +0.142 HD
ENDBRANCH   8  22
BRANCH  11  25
ATOM     25  N3  UNL     1     -22.158 -29.887   7.695  0.00  0.00    -0.357 N 
ATOM     26  H12 UNL     1     -22.470 -29.185   6.990  0.00  0.00    +0.142 HD
ATOM     27  H13 UNL     1     -22.866 -30.232   8.381  0.00  0.00    +0.142 HD
ENDBRANCH  11  25
BRANCH   1  28
ATOM     28  C4  UNL     1     -20.414 -31.481   2.714  0.00  0.00    +0.128 C 
BRANCH  28  29
ATOM     29  C3  UNL     1     -19.473 -30.592   1.890  0.00  0.00    +0.021 C 
BRANCH  29  31
ATOM     30  C1  UNL     1     -18.380 -28.607   3.000  0.00  0.00    +0.004 C 
ATOM     31  C2  UNL     1     -19.611 -29.107   2.252  0.00  0.00    -0.002 C 
ENDBRANCH  29  31
ENDBRANCH  28  29
ENDBRANCH   1  28
TORSDOF 5
ENDMDL
