MODEL 1
REMARK minimizedAffinity -4.47155619
REMARK minimizedRMSD -1
REMARK  Name = /home/tchapet/Post-Doc/ARTICLES-DOSSIERS-DES-ARTICLES-EN-REDACTION/NOUVELS-AXES-DE-RECHERCHE-A-REGARDER-URGEMMENT/ARTICLES-EN-REDACTIONS/ARTICLE_MVOTO/Paper2_Sensors_ActuatorsB/docking_rerun/ligands/20778.pdb
REMARK  7 active torsions:
REMARK  status: ('A' for Active; 'I' for Inactive)
REMARK    1  A    between atoms: N2_2  and  N3_3
REMARK    2  A    between atoms: C2_6  and  N5_7
REMARK    3  A    between atoms: N5_7  and  C3_8
REMARK    4  A    between atoms: C3_8  and  C4_9
REMARK    5  A    between atoms: C3_8  and  C5_10
REMARK    6  A    between atoms: C6_12  and  S1_14
REMARK    7  A    between atoms: S1_14  and  C7_15
REMARK                            x       y       z     vdW  Elec       q    Type
REMARK                         _______ _______ _______ _____ _____    ______ ____
ROOT
ATOM      1  N3  UNL     1       4.341  13.469  21.699  0.00  0.00    -0.126 N 
ATOM      2  C1  UNL     1       5.047  13.488  20.456  0.00  0.00    +0.252 A 
ATOM      3  N4  UNL     1       4.919  12.449  19.591  0.00  0.00    -0.178 NA
ATOM      4  C2  UNL     1       5.585  12.456  18.409  0.00  0.00    +0.240 A 
ATOM      5  N6  UNL     1       6.380  13.510  18.092  0.00  0.00    -0.187 NA
ATOM      6  C6  UNL     1       6.509  14.551  18.951  0.00  0.00    +0.194 A 
ATOM      7  N7  UNL     1       5.844  14.540  20.133  0.00  0.00    -0.187 NA
ATOM      8  H1  UNL     1       3.731  12.657  21.940  0.00  0.00    +0.193 HD
ENDROOT
BRANCH   1  10
ATOM      9  N1  UNL     1       4.543  15.346  23.303  0.00  0.00    -0.017 NA
ATOM     10  N2  UNL     1       4.452  14.498  22.577  0.00  0.00    -0.126 NA
ENDBRANCH   1  10
BRANCH   6  11
ATOM     11  S1  UNL     1       7.556  15.937  18.525  0.00  0.00    -0.089 S 
ATOM     12  C7  UNL     1       8.429  15.021  17.218  0.00  0.00    +0.093 C 
ENDBRANCH   6  11
BRANCH   4  13
ATOM     13  N5  UNL     1       5.430  11.349  17.510  0.00  0.00    -0.213 NA
BRANCH  13  14
ATOM     14  C3  UNL     1       4.632  11.327  16.282  0.00  0.00    +0.091 C 
ATOM     15  C4  UNL     1       3.406  12.239  16.399  0.00  0.00    +0.029 C 
ATOM     16  C5  UNL     1       5.485  11.671  15.058  0.00  0.00    +0.029 C 
ENDBRANCH  13  14
ENDBRANCH   4  13
TORSDOF 4
ENDMDL
MODEL 2
REMARK minimizedAffinity -4.21058464
REMARK minimizedRMSD -1
REMARK  Name = /home/tchapet/Post-Doc/ARTICLES-DOSSIERS-DES-ARTICLES-EN-REDACTION/NOUVELS-AXES-DE-RECHERCHE-A-REGARDER-URGEMMENT/ARTICLES-EN-REDACTIONS/ARTICLE_MVOTO/Paper2_Sensors_ActuatorsB/docking_rerun/ligands/20778.pdb
REMARK  7 active torsions:
REMARK  status: ('A' for Active; 'I' for Inactive)
REMARK    1  A    between atoms: N2_2  and  N3_3
REMARK    2  A    between atoms: C2_6  and  N5_7
REMARK    3  A    between atoms: N5_7  and  C3_8
REMARK    4  A    between atoms: C3_8  and  C4_9
REMARK    5  A    between atoms: C3_8  and  C5_10
REMARK    6  A    between atoms: C6_12  and  S1_14
REMARK    7  A    between atoms: S1_14  and  C7_15
REMARK                            x       y       z     vdW  Elec       q    Type
REMARK                         _______ _______ _______ _____ _____    ______ ____
ROOT
ATOM      1  N3  UNL     1       6.773  -4.616  36.700  0.00  0.00    -0.126 N 
ATOM      2  C1  UNL     1       6.307  -5.282  35.524  0.00  0.00    +0.252 A 
ATOM      3  N4  UNL     1       6.377  -4.656  34.321  0.00  0.00    -0.178 NA
ATOM      4  C2  UNL     1       5.938  -5.277  33.198  0.00  0.00    +0.240 A 
ATOM      5  N6  UNL     1       5.427  -6.533  33.282  0.00  0.00    -0.187 NA
ATOM      6  C6  UNL     1       5.356  -7.163  34.480  0.00  0.00    +0.194 A 
ATOM      7  N7  UNL     1       5.795  -6.538  35.601  0.00  0.00    -0.187 NA
ATOM      8  H1  UNL     1       7.164  -3.651  36.632  0.00  0.00    +0.193 HD
ENDROOT
BRANCH   1  10
ATOM      9  N1  UNL     1       6.667  -5.724  38.913  0.00  0.00    -0.017 NA
ATOM     10  N2  UNL     1       6.715  -5.223  37.912  0.00  0.00    -0.126 NA
ENDBRANCH   1  10
BRANCH   6  11
ATOM     11  S1  UNL     1       4.685  -8.818  34.581  0.00  0.00    -0.089 S 
ATOM     12  C7  UNL     1       4.519  -8.982  32.778  0.00  0.00    +0.093 C 
ENDBRANCH   6  11
BRANCH   4  13
ATOM     13  N5  UNL     1       6.027  -4.598  31.939  0.00  0.00    -0.213 NA
BRANCH  13  14
ATOM     14  C3  UNL     1       5.990  -5.213  30.610  0.00  0.00    +0.091 C 
ATOM     15  C4  UNL     1       5.207  -4.348  29.618  0.00  0.00    +0.029 C 
ATOM     16  C5  UNL     1       7.401  -5.527  30.103  0.00  0.00    +0.029 C 
ENDBRANCH  13  14
ENDBRANCH   4  13
TORSDOF 4
ENDMDL
MODEL 3
REMARK minimizedAffinity -4.142838
REMARK minimizedRMSD -1
REMARK  Name = /home/tchapet/Post-Doc/ARTICLES-DOSSIERS-DES-ARTICLES-EN-REDACTION/NOUVELS-AXES-DE-RECHERCHE-A-REGARDER-URGEMMENT/ARTICLES-EN-REDACTIONS/ARTICLE_MVOTO/Paper2_Sensors_ActuatorsB/docking_rerun/ligands/20778.pdb
REMARK  7 active torsions:
REMARK  status: ('A' for Active; 'I' for Inactive)
REMARK    1  A    between atoms: N2_2  and  N3_3
REMARK    2  A    between atoms: C2_6  and  N5_7
REMARK    3  A    between atoms: N5_7  and  C3_8
REMARK    4  A    between atoms: C3_8  and  C4_9
REMARK    5  A    between atoms: C3_8  and  C5_10
REMARK    6  A    between atoms: C6_12  and  S1_14
REMARK    7  A    between atoms: S1_14  and  C7_15
REMARK                            x       y       z     vdW  Elec       q    Type
REMARK                         _______ _______ _______ _____ _____    ______ ____
ROOT
ATOM      1  N3  UNL     1       6.732  -5.357  38.413  0.00  0.00    -0.126 N 
ATOM      2  C1  UNL     1       5.968  -4.851  37.316  0.00  0.00    +0.252 A 
ATOM      3  N4  UNL     1       6.442  -4.974  36.050  0.00  0.00    -0.178 NA
ATOM      4  C2  UNL     1       5.726  -4.497  35.000  0.00  0.00    +0.240 A 
ATOM      5  N6  UNL     1       4.529  -3.896  35.223  0.00  0.00    -0.187 NA
ATOM      6  C6  UNL     1       4.050  -3.772  36.485  0.00  0.00    +0.194 A 
ATOM      7  N7  UNL     1       4.769  -4.249  37.532  0.00  0.00    -0.187 NA
ATOM      8  H1  UNL     1       7.652  -5.818  38.239  0.00  0.00    +0.193 HD
ENDROOT
BRANCH   1  10
ATOM      9  N1  UNL     1       5.902  -5.157  40.738  0.00  0.00    -0.017 NA
ATOM     10  N2  UNL     1       6.277  -5.247  39.686  0.00  0.00    -0.126 NA
ENDBRANCH   1  10
BRANCH   6  11
ATOM     11  S1  UNL     1       2.471  -2.982  36.769  0.00  0.00    -0.089 S 
ATOM     12  C7  UNL     1       2.172  -2.689  34.999  0.00  0.00    +0.093 C 
ENDBRANCH   6  11
BRANCH   4  13
ATOM     13  N5  UNL     1       6.246  -4.643  33.672  0.00  0.00    -0.213 NA
BRANCH  13  14
ATOM     14  C3  UNL     1       5.603  -5.340  32.555  0.00  0.00    +0.091 C 
ATOM     15  C4  UNL     1       6.505  -5.356  31.317  0.00  0.00    +0.029 C 
ATOM     16  C5  UNL     1       5.162  -6.749  32.959  0.00  0.00    +0.029 C 
ENDBRANCH  13  14
ENDBRANCH   4  13
TORSDOF 4
ENDMDL
MODEL 4
REMARK minimizedAffinity -4.02892542
REMARK minimizedRMSD -1
REMARK  Name = /home/tchapet/Post-Doc/ARTICLES-DOSSIERS-DES-ARTICLES-EN-REDACTION/NOUVELS-AXES-DE-RECHERCHE-A-REGARDER-URGEMMENT/ARTICLES-EN-REDACTIONS/ARTICLE_MVOTO/Paper2_Sensors_ActuatorsB/docking_rerun/ligands/20778.pdb
REMARK  7 active torsions:
REMARK  status: ('A' for Active; 'I' for Inactive)
REMARK    1  A    between atoms: N2_2  and  N3_3
REMARK    2  A    between atoms: C2_6  and  N5_7
REMARK    3  A    between atoms: N5_7  and  C3_8
REMARK    4  A    between atoms: C3_8  and  C4_9
REMARK    5  A    between atoms: C3_8  and  C5_10
REMARK    6  A    between atoms: C6_12  and  S1_14
REMARK    7  A    between atoms: S1_14  and  C7_15
REMARK                            x       y       z     vdW  Elec       q    Type
REMARK                         _______ _______ _______ _____ _____    ______ ____
ROOT
ATOM      1  N3  UNL     1       5.223  11.997  19.027  0.00  0.00    -0.126 N 
ATOM      2  C1  UNL     1       5.489  13.216  19.725  0.00  0.00    +0.252 A 
ATOM      3  N4  UNL     1       4.918  13.439  20.937  0.00  0.00    -0.178 NA
ATOM      4  C2  UNL     1       5.163  14.593  21.608  0.00  0.00    +0.240 A 
ATOM      5  N6  UNL     1       5.984  15.526  21.061  0.00  0.00    -0.187 NA
ATOM      6  C6  UNL     1       6.558  15.308  19.853  0.00  0.00    +0.194 A 
ATOM      7  N7  UNL     1       6.310  14.154  19.184  0.00  0.00    -0.187 NA
ATOM      8  H1  UNL     1       4.591  11.282  19.450  0.00  0.00    +0.193 HD
ENDROOT
BRANCH   1  10
ATOM      9  N1  UNL     1       6.247  11.550  16.817  0.00  0.00    -0.017 NA
ATOM     10  N2  UNL     1       5.784  11.752  17.817  0.00  0.00    -0.126 NA
ENDBRANCH   1  10
BRANCH   6  11
ATOM     11  S1  UNL     1       7.641  16.540  19.142  0.00  0.00    -0.089 S 
ATOM     12  C7  UNL     1       8.027  17.293  20.752  0.00  0.00    +0.093 C 
ENDBRANCH   6  11
BRANCH   4  13
ATOM     13  N5  UNL     1       4.552  14.803  22.888  0.00  0.00    -0.213 NA
BRANCH  13  14
ATOM     14  C3  UNL     1       3.512  15.783  23.209  0.00  0.00    +0.091 C 
ATOM     15  C4  UNL     1       4.035  16.854  24.172  0.00  0.00    +0.029 C 
ATOM     16  C5  UNL     1       2.918  16.399  21.938  0.00  0.00    +0.029 C 
ENDBRANCH  13  14
ENDBRANCH   4  13
TORSDOF 4
ENDMDL
MODEL 5
REMARK minimizedAffinity -4.0153203
REMARK minimizedRMSD -1
REMARK  Name = /home/tchapet/Post-Doc/ARTICLES-DOSSIERS-DES-ARTICLES-EN-REDACTION/NOUVELS-AXES-DE-RECHERCHE-A-REGARDER-URGEMMENT/ARTICLES-EN-REDACTIONS/ARTICLE_MVOTO/Paper2_Sensors_ActuatorsB/docking_rerun/ligands/20778.pdb
REMARK  7 active torsions:
REMARK  status: ('A' for Active; 'I' for Inactive)
REMARK    1  A    between atoms: N2_2  and  N3_3
REMARK    2  A    between atoms: C2_6  and  N5_7
REMARK    3  A    between atoms: N5_7  and  C3_8
REMARK    4  A    between atoms: C3_8  and  C4_9
REMARK    5  A    between atoms: C3_8  and  C5_10
REMARK    6  A    between atoms: C6_12  and  S1_14
REMARK    7  A    between atoms: S1_14  and  C7_15
REMARK                            x       y       z     vdW  Elec       q    Type
REMARK                         _______ _______ _______ _____ _____    ______ ____
ROOT
ATOM      1  N3  UNL     1       4.319  13.069  20.946  0.00  0.00    -0.126 N 
ATOM      2  C1  UNL     1       4.766  14.292  21.536  0.00  0.00    +0.252 A 
ATOM      3  N4  UNL     1       4.152  14.768  22.650  0.00  0.00    -0.178 NA
ATOM      4  C2  UNL     1       4.568  15.929  23.218  0.00  0.00    +0.240 A 
ATOM      5  N6  UNL     1       5.603  16.612  22.667  0.00  0.00    -0.187 NA
ATOM      6  C6  UNL     1       6.221  16.140  21.556  0.00  0.00    +0.194 A 
ATOM      7  N7  UNL     1       5.802  14.980  20.990  0.00  0.00    -0.187 NA
ATOM      8  H1  UNL     1       3.521  12.546  21.372  0.00  0.00    +0.193 HD
ENDROOT
BRANCH   1  10
ATOM      9  N1  UNL     1       5.413  12.162  18.918  0.00  0.00    -0.017 NA
ATOM     10  N2  UNL     1       4.918  12.573  19.835  0.00  0.00    -0.126 NA
ENDBRANCH   1  10
BRANCH   6  11
ATOM     11  S1  UNL     1       7.587  17.044  20.840  0.00  0.00    -0.089 S 
ATOM     12  C7  UNL     1       8.625  16.876  22.324  0.00  0.00    +0.093 C 
ENDBRANCH   6  11
BRANCH   4  13
ATOM     13  N5  UNL     1       3.907  16.409  24.396  0.00  0.00    -0.213 NA
BRANCH  13  14
ATOM     14  C3  UNL     1       3.621  17.807  24.728  0.00  0.00    +0.091 C 
ATOM     15  C4  UNL     1       2.287  18.260  24.128  0.00  0.00    +0.029 C 
ATOM     16  C5  UNL     1       3.676  18.042  26.241  0.00  0.00    +0.029 C 
ENDBRANCH  13  14
ENDBRANCH   4  13
TORSDOF 4
ENDMDL
MODEL 6
REMARK minimizedAffinity -3.94639754
REMARK minimizedRMSD -1
REMARK  Name = /home/tchapet/Post-Doc/ARTICLES-DOSSIERS-DES-ARTICLES-EN-REDACTION/NOUVELS-AXES-DE-RECHERCHE-A-REGARDER-URGEMMENT/ARTICLES-EN-REDACTIONS/ARTICLE_MVOTO/Paper2_Sensors_ActuatorsB/docking_rerun/ligands/20778.pdb
REMARK  7 active torsions:
REMARK  status: ('A' for Active; 'I' for Inactive)
REMARK    1  A    between atoms: N2_2  and  N3_3
REMARK    2  A    between atoms: C2_6  and  N5_7
REMARK    3  A    between atoms: N5_7  and  C3_8
REMARK    4  A    between atoms: C3_8  and  C4_9
REMARK    5  A    between atoms: C3_8  and  C5_10
REMARK    6  A    between atoms: C6_12  and  S1_14
REMARK    7  A    between atoms: S1_14  and  C7_15
REMARK                            x       y       z     vdW  Elec       q    Type
REMARK                         _______ _______ _______ _____ _____    ______ ____
ROOT
ATOM      1  N3  UNL     1      11.619  20.688  39.208  0.00  0.00    -0.126 N 
ATOM      2  C1  UNL     1      12.824  21.398  38.916  0.00  0.00    +0.252 A 
ATOM      3  N4  UNL     1      14.003  20.972  39.439  0.00  0.00    -0.178 NA
ATOM      4  C2  UNL     1      15.153  21.639  39.169  0.00  0.00    +0.240 A 
ATOM      5  N6  UNL     1      15.121  22.737  38.370  0.00  0.00    -0.187 NA
ATOM      6  C6  UNL     1      13.947  23.166  37.844  0.00  0.00    +0.194 A 
ATOM      7  N7  UNL     1      12.798  22.497  38.117  0.00  0.00    -0.187 NA
ATOM      8  H1  UNL     1      11.647  19.844  39.823  0.00  0.00    +0.193 HD
ENDROOT
BRANCH   1  10
ATOM      9  N1  UNL     1       9.449  21.429  38.271  0.00  0.00    -0.017 NA
ATOM     10  N2  UNL     1      10.430  21.093  38.695  0.00  0.00    -0.126 NA
ENDBRANCH   1  10
BRANCH   6  11
ATOM     11  S1  UNL     1      13.914  24.610  36.790  0.00  0.00    -0.089 S 
ATOM     12  C7  UNL     1      12.666  23.904  35.671  0.00  0.00    +0.093 C 
ENDBRANCH   6  11
BRANCH   4  13
ATOM     13  N5  UNL     1      16.386  21.168  39.728  0.00  0.00    -0.213 NA
BRANCH  13  14
ATOM     14  C3  UNL     1      16.768  21.191  41.143  0.00  0.00    +0.091 C 
ATOM     15  C4  UNL     1      16.494  19.842  41.815  0.00  0.00    +0.029 C 
ATOM     16  C5  UNL     1      18.225  21.631  41.318  0.00  0.00    +0.029 C 
ENDBRANCH  13  14
ENDBRANCH   4  13
TORSDOF 4
ENDMDL
MODEL 7
REMARK minimizedAffinity -3.93989134
REMARK minimizedRMSD -1
REMARK  Name = /home/tchapet/Post-Doc/ARTICLES-DOSSIERS-DES-ARTICLES-EN-REDACTION/NOUVELS-AXES-DE-RECHERCHE-A-REGARDER-URGEMMENT/ARTICLES-EN-REDACTIONS/ARTICLE_MVOTO/Paper2_Sensors_ActuatorsB/docking_rerun/ligands/20778.pdb
REMARK  7 active torsions:
REMARK  status: ('A' for Active; 'I' for Inactive)
REMARK    1  A    between atoms: N2_2  and  N3_3
REMARK    2  A    between atoms: C2_6  and  N5_7
REMARK    3  A    between atoms: N5_7  and  C3_8
REMARK    4  A    between atoms: C3_8  and  C4_9
REMARK    5  A    between atoms: C3_8  and  C5_10
REMARK    6  A    between atoms: C6_12  and  S1_14
REMARK    7  A    between atoms: S1_14  and  C7_15
REMARK                            x       y       z     vdW  Elec       q    Type
REMARK                         _______ _______ _______ _____ _____    ______ ____
ROOT
ATOM      1  N3  UNL     1       6.230  -4.236  32.782  0.00  0.00    -0.126 N 
ATOM      2  C1  UNL     1       6.010  -5.188  33.825  0.00  0.00    +0.252 A 
ATOM      3  N4  UNL     1       6.263  -4.847  35.115  0.00  0.00    -0.178 NA
ATOM      4  C2  UNL     1       6.058  -5.743  36.113  0.00  0.00    +0.240 A 
ATOM      5  N6  UNL     1       5.595  -6.985  35.817  0.00  0.00    -0.187 NA
ATOM      6  C6  UNL     1       5.338  -7.329  34.531  0.00  0.00    +0.194 A 
ATOM      7  N7  UNL     1       5.546  -6.432  33.535  0.00  0.00    -0.187 NA
ATOM      8  H1  UNL     1       6.587  -3.283  33.014  0.00  0.00    +0.193 HD
ENDROOT
BRANCH   1  10
ATOM      9  N1  UNL     1       5.777  -4.815  30.417  0.00  0.00    -0.017 NA
ATOM     10  N2  UNL     1       5.982  -4.553  31.487  0.00  0.00    -0.126 NA
ENDBRANCH   1  10
BRANCH   6  11
ATOM     11  S1  UNL     1       4.725  -8.965  34.149  0.00  0.00    -0.089 S 
ATOM     12  C7  UNL     1       4.560  -8.612  32.373  0.00  0.00    +0.093 C 
ENDBRANCH   6  11
BRANCH   4  13
ATOM     13  N5  UNL     1       6.329  -5.358  37.468  0.00  0.00    -0.213 NA
BRANCH  13  14
ATOM     14  C3  UNL     1       5.338  -5.027  38.496  0.00  0.00    +0.091 C 
ATOM     15  C4  UNL     1       5.935  -5.146  39.902  0.00  0.00    +0.029 C 
ATOM     16  C5  UNL     1       4.724  -3.645  38.251  0.00  0.00    +0.029 C 
ENDBRANCH  13  14
ENDBRANCH   4  13
TORSDOF 4
ENDMDL
MODEL 8
REMARK minimizedAffinity -3.91879582
REMARK minimizedRMSD -1
REMARK  Name = /home/tchapet/Post-Doc/ARTICLES-DOSSIERS-DES-ARTICLES-EN-REDACTION/NOUVELS-AXES-DE-RECHERCHE-A-REGARDER-URGEMMENT/ARTICLES-EN-REDACTIONS/ARTICLE_MVOTO/Paper2_Sensors_ActuatorsB/docking_rerun/ligands/20778.pdb
REMARK  7 active torsions:
REMARK  status: ('A' for Active; 'I' for Inactive)
REMARK    1  A    between atoms: N2_2  and  N3_3
REMARK    2  A    between atoms: C2_6  and  N5_7
REMARK    3  A    between atoms: N5_7  and  C3_8
REMARK    4  A    between atoms: C3_8  and  C4_9
REMARK    5  A    between atoms: C3_8  and  C5_10
REMARK    6  A    between atoms: C6_12  and  S1_14
REMARK    7  A    between atoms: S1_14  and  C7_15
REMARK                            x       y       z     vdW  Elec       q    Type
REMARK                         _______ _______ _______ _____ _____    ______ ____
ROOT
ATOM      1  N3  UNL     1      17.137   5.258  48.048  0.00  0.00    -0.126 N 
ATOM      2  C1  UNL     1      15.938   4.481  48.027  0.00  0.00    +0.252 A 
ATOM      3  N4  UNL     1      15.835   3.420  47.185  0.00  0.00    -0.178 NA
ATOM      4  C2  UNL     1      14.701   2.676  47.156  0.00  0.00    +0.240 A 
ATOM      5  N6  UNL     1      13.667   2.996  47.975  0.00  0.00    -0.187 NA
ATOM      6  C6  UNL     1      13.764   4.053  48.818  0.00  0.00    +0.194 A 
ATOM      7  N7  UNL     1      14.899   4.796  48.844  0.00  0.00    -0.187 NA
ATOM      8  H1  UNL     1      17.930   5.009  47.416  0.00  0.00    +0.193 HD
ENDROOT
BRANCH   1  10
ATOM      9  N1  UNL     1      17.366   7.198  49.572  0.00  0.00    -0.017 NA
ATOM     10  N2  UNL     1      17.262   6.320  48.882  0.00  0.00    -0.126 NA
ENDBRANCH   1  10
BRANCH   6  11
ATOM     11  S1  UNL     1      12.399   4.465  49.897  0.00  0.00    -0.089 S 
ATOM     12  C7  UNL     1      12.052   2.728  50.308  0.00  0.00    +0.093 C 
ENDBRANCH   6  11
BRANCH   4  13
ATOM     13  N5  UNL     1      14.619   1.558  46.262  0.00  0.00    -0.213 NA
BRANCH  13  14
ATOM     14  C3  UNL     1      14.442   1.613  44.808  0.00  0.00    +0.091 C 
ATOM     15  C4  UNL     1      13.669   0.394  44.295  0.00  0.00    +0.029 C 
ATOM     16  C5  UNL     1      13.785   2.928  44.378  0.00  0.00    +0.029 C 
ENDBRANCH  13  14
ENDBRANCH   4  13
TORSDOF 4
ENDMDL
MODEL 9
REMARK minimizedAffinity -3.91455746
REMARK minimizedRMSD -1
REMARK  Name = /home/tchapet/Post-Doc/ARTICLES-DOSSIERS-DES-ARTICLES-EN-REDACTION/NOUVELS-AXES-DE-RECHERCHE-A-REGARDER-URGEMMENT/ARTICLES-EN-REDACTIONS/ARTICLE_MVOTO/Paper2_Sensors_ActuatorsB/docking_rerun/ligands/20778.pdb
REMARK  7 active torsions:
REMARK  status: ('A' for Active; 'I' for Inactive)
REMARK    1  A    between atoms: N2_2  and  N3_3
REMARK    2  A    between atoms: C2_6  and  N5_7
REMARK    3  A    between atoms: N5_7  and  C3_8
REMARK    4  A    between atoms: C3_8  and  C4_9
REMARK    5  A    between atoms: C3_8  and  C5_10
REMARK    6  A    between atoms: C6_12  and  S1_14
REMARK    7  A    between atoms: S1_14  and  C7_15
REMARK                            x       y       z     vdW  Elec       q    Type
REMARK                         _______ _______ _______ _____ _____    ______ ____
ROOT
ATOM      1  N3  UNL     1       6.226  13.620  19.669  0.00  0.00    -0.126 N 
ATOM      2  C1  UNL     1       7.008  14.662  19.081  0.00  0.00    +0.252 A 
ATOM      3  N4  UNL     1       7.359  15.744  19.824  0.00  0.00    -0.178 NA
ATOM      4  C2  UNL     1       8.100  16.740  19.276  0.00  0.00    +0.240 A 
ATOM      5  N6  UNL     1       8.493  16.648  17.979  0.00  0.00    -0.187 NA
ATOM      6  C6  UNL     1       8.147  15.570  17.234  0.00  0.00    +0.194 A 
ATOM      7  N7  UNL     1       7.404  14.577  17.785  0.00  0.00    -0.187 NA
ATOM      8  H1  UNL     1       5.926  13.694  20.667  0.00  0.00    +0.193 HD
ENDROOT
BRANCH   1  10
ATOM      9  N1  UNL     1       5.569  11.628  18.353  0.00  0.00    -0.017 NA
ATOM     10  N2  UNL     1       5.867  12.529  18.948  0.00  0.00    -0.126 NA
ENDBRANCH   1  10
BRANCH   6  11
ATOM     11  S1  UNL     1       8.671  15.456  15.529  0.00  0.00    -0.089 S 
ATOM     12  C7  UNL     1       8.883  17.254  15.355  0.00  0.00    +0.093 C 
ENDBRANCH   6  11
BRANCH   4  13
ATOM     13  N5  UNL     1       8.462  17.870  20.081  0.00  0.00    -0.213 NA
BRANCH  13  14
ATOM     14  C3  UNL     1       9.664  18.003  20.908  0.00  0.00    +0.091 C 
ATOM     15  C4  UNL     1      10.037  19.475  21.113  0.00  0.00    +0.029 C 
ATOM     16  C5  UNL     1       9.507  17.263  22.240  0.00  0.00    +0.029 C 
ENDBRANCH  13  14
ENDBRANCH   4  13
TORSDOF 4
ENDMDL
