MODEL 1
REMARK minimizedAffinity -4.23294067
REMARK minimizedRMSD -1
REMARK  Name = /home/tchapet/Post-Doc/ARTICLES-DOSSIERS-DES-ARTICLES-EN-REDACTION/NOUVELS-AXES-DE-RECHERCHE-A-REGARDER-URGEMMENT/ARTICLES-EN-REDACTIONS/ARTICLE_MVOTO/Paper2_Sensors_ActuatorsB/docking_rerun/ligands/20778.pdb
REMARK  7 active torsions:
REMARK  status: ('A' for Active; 'I' for Inactive)
REMARK    1  A    between atoms: N2_2  and  N3_3
REMARK    2  A    between atoms: C2_6  and  N5_7
REMARK    3  A    between atoms: N5_7  and  C3_8
REMARK    4  A    between atoms: C3_8  and  C4_9
REMARK    5  A    between atoms: C3_8  and  C5_10
REMARK    6  A    between atoms: C6_12  and  S1_14
REMARK    7  A    between atoms: S1_14  and  C7_15
REMARK                            x       y       z     vdW  Elec       q    Type
REMARK                         _______ _______ _______ _____ _____    ______ ____
ROOT
ATOM      1  N3  UNL     1      11.160  23.934  22.368  0.00  0.00    -0.126 N 
ATOM      2  C1  UNL     1      12.569  24.169  22.406  0.00  0.00    +0.252 A 
ATOM      3  N4  UNL     1      13.420  23.260  21.863  0.00  0.00    -0.178 NA
ATOM      4  C2  UNL     1      14.760  23.473  21.893  0.00  0.00    +0.240 A 
ATOM      5  N6  UNL     1      15.247  24.602  22.469  0.00  0.00    -0.187 NA
ATOM      6  C6  UNL     1      14.402  25.513  23.010  0.00  0.00    +0.194 A 
ATOM      7  N7  UNL     1      13.063  25.297  22.980  0.00  0.00    -0.187 NA
ATOM      8  H1  UNL     1      10.788  23.064  21.926  0.00  0.00    +0.193 HD
ENDROOT
BRANCH   1  10
ATOM      9  N1  UNL     1       9.573  25.568  23.342  0.00  0.00    -0.017 NA
ATOM     10  N2  UNL     1      10.291  24.828  22.902  0.00  0.00    -0.126 NA
ENDBRANCH   1  10
BRANCH   6  11
ATOM     11  S1  UNL     1      15.052  26.999  23.762  0.00  0.00    -0.089 S 
ATOM     12  C7  UNL     1      13.411  27.764  23.938  0.00  0.00    +0.093 C 
ENDBRANCH   6  11
BRANCH   4  13
ATOM     13  N5  UNL     1      15.638  22.501  21.310  0.00  0.00    -0.213 NA
BRANCH  13  14
ATOM     14  C3  UNL     1      16.624  21.680  22.016  0.00  0.00    +0.091 C 
ATOM     15  C4  UNL     1      15.957  20.500  22.730  0.00  0.00    +0.029 C 
ATOM     16  C5  UNL     1      17.741  21.220  21.075  0.00  0.00    +0.029 C 
ENDBRANCH  13  14
ENDBRANCH   4  13
TORSDOF 4
ENDMDL
MODEL 2
REMARK minimizedAffinity -4.18390846
REMARK minimizedRMSD -1
REMARK  Name = /home/tchapet/Post-Doc/ARTICLES-DOSSIERS-DES-ARTICLES-EN-REDACTION/NOUVELS-AXES-DE-RECHERCHE-A-REGARDER-URGEMMENT/ARTICLES-EN-REDACTIONS/ARTICLE_MVOTO/Paper2_Sensors_ActuatorsB/docking_rerun/ligands/20778.pdb
REMARK  7 active torsions:
REMARK  status: ('A' for Active; 'I' for Inactive)
REMARK    1  A    between atoms: N2_2  and  N3_3
REMARK    2  A    between atoms: C2_6  and  N5_7
REMARK    3  A    between atoms: N5_7  and  C3_8
REMARK    4  A    between atoms: C3_8  and  C4_9
REMARK    5  A    between atoms: C3_8  and  C5_10
REMARK    6  A    between atoms: C6_12  and  S1_14
REMARK    7  A    between atoms: S1_14  and  C7_15
REMARK                            x       y       z     vdW  Elec       q    Type
REMARK                         _______ _______ _______ _____ _____    ______ ____
ROOT
ATOM      1  N3  UNL     1      14.830   7.728  13.793  0.00  0.00    -0.126 N 
ATOM      2  C1  UNL     1      15.487   6.578  13.254  0.00  0.00    +0.252 A 
ATOM      3  N4  UNL     1      15.182   6.152  12.001  0.00  0.00    -0.178 NA
ATOM      4  C2  UNL     1      15.799   5.061  11.480  0.00  0.00    +0.240 A 
ATOM      5  N6  UNL     1      16.725   4.397  12.217  0.00  0.00    -0.187 NA
ATOM      6  C6  UNL     1      17.035   4.820  13.468  0.00  0.00    +0.194 A 
ATOM      7  N7  UNL     1      16.415   5.910  13.987  0.00  0.00    -0.187 NA
ATOM      8  H1  UNL     1      14.118   8.235  13.223  0.00  0.00    +0.193 HD
ENDROOT
BRANCH   1  10
ATOM      9  N1  UNL     1      15.359   8.542  16.071  0.00  0.00    -0.017 NA
ATOM     10  N2  UNL     1      15.120   8.173  15.041  0.00  0.00    -0.126 NA
ENDBRANCH   1  10
BRANCH   6  11
ATOM     11  S1  UNL     1      18.259   3.942  14.431  0.00  0.00    -0.089 S 
ATOM     12  C7  UNL     1      18.168   2.449  13.396  0.00  0.00    +0.093 C 
ENDBRANCH   6  11
BRANCH   4  13
ATOM     13  N5  UNL     1      15.464   4.633  10.153  0.00  0.00    -0.213 NA
BRANCH  13  14
ATOM     14  C3  UNL     1      15.099   3.276   9.740  0.00  0.00    +0.091 C 
ATOM     15  C4  UNL     1      14.126   3.297   8.557  0.00  0.00    +0.029 C 
ATOM     16  C5  UNL     1      16.342   2.432   9.441  0.00  0.00    +0.029 C 
ENDBRANCH  13  14
ENDBRANCH   4  13
TORSDOF 4
ENDMDL
MODEL 3
REMARK minimizedAffinity -4.17384768
REMARK minimizedRMSD -1
REMARK  Name = /home/tchapet/Post-Doc/ARTICLES-DOSSIERS-DES-ARTICLES-EN-REDACTION/NOUVELS-AXES-DE-RECHERCHE-A-REGARDER-URGEMMENT/ARTICLES-EN-REDACTIONS/ARTICLE_MVOTO/Paper2_Sensors_ActuatorsB/docking_rerun/ligands/20778.pdb
REMARK  7 active torsions:
REMARK  status: ('A' for Active; 'I' for Inactive)
REMARK    1  A    between atoms: N2_2  and  N3_3
REMARK    2  A    between atoms: C2_6  and  N5_7
REMARK    3  A    between atoms: N5_7  and  C3_8
REMARK    4  A    between atoms: C3_8  and  C4_9
REMARK    5  A    between atoms: C3_8  and  C5_10
REMARK    6  A    between atoms: C6_12  and  S1_14
REMARK    7  A    between atoms: S1_14  and  C7_15
REMARK                            x       y       z     vdW  Elec       q    Type
REMARK                         _______ _______ _______ _____ _____    ______ ____
ROOT
ATOM      1  N3  UNL     1     -23.685 -28.527   6.903  0.00  0.00    -0.126 N 
ATOM      2  C1  UNL     1     -23.490 -28.932   5.546  0.00  0.00    +0.252 A 
ATOM      3  N4  UNL     1     -22.376 -28.538   4.877  0.00  0.00    -0.178 NA
ATOM      4  C2  UNL     1     -22.180 -28.916   3.588  0.00  0.00    +0.240 A 
ATOM      5  N6  UNL     1     -23.105 -29.694   2.970  0.00  0.00    -0.187 NA
ATOM      6  C6  UNL     1     -24.218 -30.093   3.634  0.00  0.00    +0.194 A 
ATOM      7  N7  UNL     1     -24.411 -29.712   4.921  0.00  0.00    -0.187 NA
ATOM      8  H1  UNL     1     -22.972 -27.928   7.375  0.00  0.00    +0.193 HD
ENDROOT
BRANCH   1  10
ATOM      9  N1  UNL     1     -25.700 -29.228   8.160  0.00  0.00    -0.017 NA
ATOM     10  N2  UNL     1     -24.788 -28.911   7.592  0.00  0.00    -0.126 NA
ENDBRANCH   1  10
BRANCH   6  11
ATOM     11  S1  UNL     1     -25.429 -31.121   2.813  0.00  0.00    -0.089 S 
ATOM     12  C7  UNL     1     -24.181 -32.284   2.183  0.00  0.00    +0.093 C 
ENDBRANCH   6  11
BRANCH   4  13
ATOM     13  N5  UNL     1     -20.994 -28.491   2.904  0.00  0.00    -0.213 NA
BRANCH  13  14
ATOM     14  C3  UNL     1     -19.881 -29.342   2.476  0.00  0.00    +0.091 C 
ATOM     15  C4  UNL     1     -18.960 -28.602   1.500  0.00  0.00    +0.029 C 
ATOM     16  C5  UNL     1     -19.112 -29.898   3.677  0.00  0.00    +0.029 C 
ENDBRANCH  13  14
ENDBRANCH   4  13
TORSDOF 4
ENDMDL
MODEL 4
REMARK minimizedAffinity -4.08085394
REMARK minimizedRMSD -1
REMARK  Name = /home/tchapet/Post-Doc/ARTICLES-DOSSIERS-DES-ARTICLES-EN-REDACTION/NOUVELS-AXES-DE-RECHERCHE-A-REGARDER-URGEMMENT/ARTICLES-EN-REDACTIONS/ARTICLE_MVOTO/Paper2_Sensors_ActuatorsB/docking_rerun/ligands/20778.pdb
REMARK  7 active torsions:
REMARK  status: ('A' for Active; 'I' for Inactive)
REMARK    1  A    between atoms: N2_2  and  N3_3
REMARK    2  A    between atoms: C2_6  and  N5_7
REMARK    3  A    between atoms: N5_7  and  C3_8
REMARK    4  A    between atoms: C3_8  and  C4_9
REMARK    5  A    between atoms: C3_8  and  C5_10
REMARK    6  A    between atoms: C6_12  and  S1_14
REMARK    7  A    between atoms: S1_14  and  C7_15
REMARK                            x       y       z     vdW  Elec       q    Type
REMARK                         _______ _______ _______ _____ _____    ______ ____
ROOT
ATOM      1  N3  UNL     1     -19.077 -21.897 -10.549  0.00  0.00    -0.126 N 
ATOM      2  C1  UNL     1     -19.753 -22.714  -9.590  0.00  0.00    +0.252 A 
ATOM      3  N4  UNL     1     -20.758 -22.188  -8.844  0.00  0.00    -0.178 NA
ATOM      4  C2  UNL     1     -21.406 -22.954  -7.930  0.00  0.00    +0.240 A 
ATOM      5  N6  UNL     1     -21.045 -24.253  -7.766  0.00  0.00    -0.187 NA
ATOM      6  C6  UNL     1     -20.043 -24.783  -8.509  0.00  0.00    +0.194 A 
ATOM      7  N7  UNL     1     -19.396 -24.014  -9.421  0.00  0.00    -0.187 NA
ATOM      8  H1  UNL     1     -19.358 -20.899 -10.672  0.00  0.00    +0.193 HD
ENDROOT
BRANCH   1  10
ATOM      9  N1  UNL     1     -17.241 -22.817 -11.932  0.00  0.00    -0.017 NA
ATOM     10  N2  UNL     1     -18.072 -22.401 -11.307  0.00  0.00    -0.126 NA
ENDBRANCH   1  10
BRANCH   6  11
ATOM     11  S1  UNL     1     -19.576 -26.495  -8.289  0.00  0.00    -0.089 S 
ATOM     12  C7  UNL     1     -21.285 -27.041  -7.990  0.00  0.00    +0.093 C 
ENDBRANCH   6  11
BRANCH   4  13
ATOM     13  N5  UNL     1     -22.468 -22.378  -7.158  0.00  0.00    -0.213 NA
BRANCH  13  14
ATOM     14  C3  UNL     1     -22.546 -20.997  -6.674  0.00  0.00    +0.091 C 
ATOM     15  C4  UNL     1     -23.993 -20.496  -6.652  0.00  0.00    +0.029 C 
ATOM     16  C5  UNL     1     -21.869 -20.848  -5.308  0.00  0.00    +0.029 C 
ENDBRANCH  13  14
ENDBRANCH   4  13
TORSDOF 4
ENDMDL
MODEL 5
REMARK minimizedAffinity -3.99928474
REMARK minimizedRMSD -1
REMARK  Name = /home/tchapet/Post-Doc/ARTICLES-DOSSIERS-DES-ARTICLES-EN-REDACTION/NOUVELS-AXES-DE-RECHERCHE-A-REGARDER-URGEMMENT/ARTICLES-EN-REDACTIONS/ARTICLE_MVOTO/Paper2_Sensors_ActuatorsB/docking_rerun/ligands/20778.pdb
REMARK  7 active torsions:
REMARK  status: ('A' for Active; 'I' for Inactive)
REMARK    1  A    between atoms: N2_2  and  N3_3
REMARK    2  A    between atoms: C2_6  and  N5_7
REMARK    3  A    between atoms: N5_7  and  C3_8
REMARK    4  A    between atoms: C3_8  and  C4_9
REMARK    5  A    between atoms: C3_8  and  C5_10
REMARK    6  A    between atoms: C6_12  and  S1_14
REMARK    7  A    between atoms: S1_14  and  C7_15
REMARK                            x       y       z     vdW  Elec       q    Type
REMARK                         _______ _______ _______ _____ _____    ______ ____
ROOT
ATOM      1  N3  UNL     1     -24.859 -28.185   6.118  0.00  0.00    -0.126 N 
ATOM      2  C1  UNL     1     -23.625 -28.890   5.971  0.00  0.00    +0.252 A 
ATOM      3  N4  UNL     1     -22.865 -28.699   4.862  0.00  0.00    -0.178 NA
ATOM      4  C2  UNL     1     -21.692 -29.363   4.712  0.00  0.00    +0.240 A 
ATOM      5  N6  UNL     1     -21.279 -30.222   5.679  0.00  0.00    -0.187 NA
ATOM      6  C6  UNL     1     -22.032 -30.415   6.789  0.00  0.00    +0.194 A 
ATOM      7  N7  UNL     1     -23.205 -29.750   6.936  0.00  0.00    -0.187 NA
ATOM      8  H1  UNL     1     -25.174 -27.526   5.372  0.00  0.00    +0.193 HD
ENDROOT
BRANCH   1  10
ATOM      9  N1  UNL     1     -26.272 -28.501   8.128  0.00  0.00    -0.017 NA
ATOM     10  N2  UNL     1     -25.633 -28.358   7.218  0.00  0.00    -0.126 NA
ENDBRANCH   1  10
BRANCH   6  11
ATOM     11  S1  UNL     1     -21.478 -31.545   8.060  0.00  0.00    -0.089 S 
ATOM     12  C7  UNL     1     -21.802 -30.367   9.407  0.00  0.00    +0.093 C 
ENDBRANCH   6  11
BRANCH   4  13
ATOM     13  N5  UNL     1     -20.905 -29.141   3.534  0.00  0.00    -0.213 NA
BRANCH  13  14
ATOM     14  C3  UNL     1     -19.598 -29.731   3.233  0.00  0.00    +0.091 C 
ATOM     15  C4  UNL     1     -19.681 -30.684   2.036  0.00  0.00    +0.029 C 
ATOM     16  C5  UNL     1     -18.533 -28.650   3.029  0.00  0.00    +0.029 C 
ENDBRANCH  13  14
ENDBRANCH   4  13
TORSDOF 4
ENDMDL
MODEL 6
REMARK minimizedAffinity -3.89058685
REMARK minimizedRMSD -1
REMARK  Name = /home/tchapet/Post-Doc/ARTICLES-DOSSIERS-DES-ARTICLES-EN-REDACTION/NOUVELS-AXES-DE-RECHERCHE-A-REGARDER-URGEMMENT/ARTICLES-EN-REDACTIONS/ARTICLE_MVOTO/Paper2_Sensors_ActuatorsB/docking_rerun/ligands/20778.pdb
REMARK  7 active torsions:
REMARK  status: ('A' for Active; 'I' for Inactive)
REMARK    1  A    between atoms: N2_2  and  N3_3
REMARK    2  A    between atoms: C2_6  and  N5_7
REMARK    3  A    between atoms: N5_7  and  C3_8
REMARK    4  A    between atoms: C3_8  and  C4_9
REMARK    5  A    between atoms: C3_8  and  C5_10
REMARK    6  A    between atoms: C6_12  and  S1_14
REMARK    7  A    between atoms: S1_14  and  C7_15
REMARK                            x       y       z     vdW  Elec       q    Type
REMARK                         _______ _______ _______ _____ _____    ______ ____
ROOT
ATOM      1  N3  UNL     1     -19.570 -28.008   2.970  0.00  0.00    -0.126 N 
ATOM      2  C1  UNL     1     -19.386 -29.289   2.364  0.00  0.00    +0.252 A 
ATOM      3  N4  UNL     1     -18.210 -29.583   1.751  0.00  0.00    -0.178 NA
ATOM      4  C2  UNL     1     -18.023 -30.796   1.172  0.00  0.00    +0.240 A 
ATOM      5  N6  UNL     1     -19.020 -31.717   1.210  0.00  0.00    -0.187 NA
ATOM      6  C6  UNL     1     -20.194 -31.430   1.822  0.00  0.00    +0.194 A 
ATOM      7  N7  UNL     1     -20.378 -30.216   2.399  0.00  0.00    -0.187 NA
ATOM      8  H1  UNL     1     -18.802 -27.301   2.939  0.00  0.00    +0.193 HD
ENDROOT
BRANCH   1  10
ATOM      9  N1  UNL     1     -21.697 -27.434   4.104  0.00  0.00    -0.017 NA
ATOM     10  N2  UNL     1     -20.735 -27.693   3.591  0.00  0.00    -0.126 NA
ENDBRANCH   1  10
BRANCH   6  11
ATOM     11  S1  UNL     1     -21.500 -32.652   1.871  0.00  0.00    -0.089 S 
ATOM     12  C7  UNL     1     -22.758 -31.451   2.403  0.00  0.00    +0.093 C 
ENDBRANCH   6  11
BRANCH   4  13
ATOM     13  N5  UNL     1     -16.772 -31.084   0.535  0.00  0.00    -0.213 NA
BRANCH  13  14
ATOM     14  C3  UNL     1     -16.130 -32.396   0.425  0.00  0.00    +0.091 C 
ATOM     15  C4  UNL     1     -15.048 -32.397  -0.659  0.00  0.00    +0.029 C 
ATOM     16  C5  UNL     1     -15.584 -32.863   1.777  0.00  0.00    +0.029 C 
ENDBRANCH  13  14
ENDBRANCH   4  13
TORSDOF 4
ENDMDL
MODEL 7
REMARK minimizedAffinity -3.87501192
REMARK minimizedRMSD -1
REMARK  Name = /home/tchapet/Post-Doc/ARTICLES-DOSSIERS-DES-ARTICLES-EN-REDACTION/NOUVELS-AXES-DE-RECHERCHE-A-REGARDER-URGEMMENT/ARTICLES-EN-REDACTIONS/ARTICLE_MVOTO/Paper2_Sensors_ActuatorsB/docking_rerun/ligands/20778.pdb
REMARK  7 active torsions:
REMARK  status: ('A' for Active; 'I' for Inactive)
REMARK    1  A    between atoms: N2_2  and  N3_3
REMARK    2  A    between atoms: C2_6  and  N5_7
REMARK    3  A    between atoms: N5_7  and  C3_8
REMARK    4  A    between atoms: C3_8  and  C4_9
REMARK    5  A    between atoms: C3_8  and  C5_10
REMARK    6  A    between atoms: C6_12  and  S1_14
REMARK    7  A    between atoms: S1_14  and  C7_15
REMARK                            x       y       z     vdW  Elec       q    Type
REMARK                         _______ _______ _______ _____ _____    ______ ____
ROOT
ATOM      1  N3  UNL     1     -28.573 -11.007   2.901  0.00  0.00    -0.126 N 
ATOM      2  C1  UNL     1     -28.713 -10.596   1.539  0.00  0.00    +0.252 A 
ATOM      3  N4  UNL     1     -28.558 -11.503   0.541  0.00  0.00    -0.178 NA
ATOM      4  C2  UNL     1     -28.688 -11.124  -0.756  0.00  0.00    +0.240 A 
ATOM      5  N6  UNL     1     -28.975  -9.831  -1.051  0.00  0.00    -0.187 NA
ATOM      6  C6  UNL     1     -29.133  -8.921  -0.058  0.00  0.00    +0.194 A 
ATOM      7  N7  UNL     1     -29.001  -9.303   1.237  0.00  0.00    -0.187 NA
ATOM      8  H1  UNL     1     -28.351 -12.002   3.125  0.00  0.00    +0.193 HD
ENDROOT
BRANCH   1  10
ATOM      9  N1  UNL     1     -28.852  -9.385   4.753  0.00  0.00    -0.017 NA
ATOM     10  N2  UNL     1     -28.726 -10.119   3.915  0.00  0.00    -0.126 NA
ENDBRANCH   1  10
BRANCH   6  11
ATOM     11  S1  UNL     1     -29.515  -7.220  -0.456  0.00  0.00    -0.089 S 
ATOM     12  C7  UNL     1     -28.573  -6.560   0.953  0.00  0.00    +0.093 C 
ENDBRANCH   6  11
BRANCH   4  13
ATOM     13  N5  UNL     1     -28.524 -12.102  -1.792  0.00  0.00    -0.213 NA
BRANCH  13  14
ATOM     14  C3  UNL     1     -28.754 -13.544  -1.676  0.00  0.00    +0.091 C 
ATOM     15  C4  UNL     1     -30.251 -13.867  -1.642  0.00  0.00    +0.029 C 
ATOM     16  C5  UNL     1     -28.029 -14.313  -2.784  0.00  0.00    +0.029 C 
ENDBRANCH  13  14
ENDBRANCH   4  13
TORSDOF 4
ENDMDL
MODEL 8
REMARK minimizedAffinity -3.82480025
REMARK minimizedRMSD -1
REMARK  Name = /home/tchapet/Post-Doc/ARTICLES-DOSSIERS-DES-ARTICLES-EN-REDACTION/NOUVELS-AXES-DE-RECHERCHE-A-REGARDER-URGEMMENT/ARTICLES-EN-REDACTIONS/ARTICLE_MVOTO/Paper2_Sensors_ActuatorsB/docking_rerun/ligands/20778.pdb
REMARK  7 active torsions:
REMARK  status: ('A' for Active; 'I' for Inactive)
REMARK    1  A    between atoms: N2_2  and  N3_3
REMARK    2  A    between atoms: C2_6  and  N5_7
REMARK    3  A    between atoms: N5_7  and  C3_8
REMARK    4  A    between atoms: C3_8  and  C4_9
REMARK    5  A    between atoms: C3_8  and  C5_10
REMARK    6  A    between atoms: C6_12  and  S1_14
REMARK    7  A    between atoms: S1_14  and  C7_15
REMARK                            x       y       z     vdW  Elec       q    Type
REMARK                         _______ _______ _______ _____ _____    ______ ____
ROOT
ATOM      1  N3  UNL     1     -24.803 -29.609   3.197  0.00  0.00    -0.126 N 
ATOM      2  C1  UNL     1     -23.491 -29.676   3.759  0.00  0.00    +0.252 A 
ATOM      3  N4  UNL     1     -22.418 -29.302   3.016  0.00  0.00    -0.178 NA
ATOM      4  C2  UNL     1     -21.167 -29.362   3.539  0.00  0.00    +0.240 A 
ATOM      5  N6  UNL     1     -20.993 -29.797   4.813  0.00  0.00    -0.187 NA
ATOM      6  C6  UNL     1     -22.060 -30.170   5.560  0.00  0.00    +0.194 A 
ATOM      7  N7  UNL     1     -23.309 -30.110   5.034  0.00  0.00    -0.187 NA
ATOM      8  H1  UNL     1     -24.934 -29.275   2.217  0.00  0.00    +0.193 HD
ENDROOT
BRANCH   1  10
ATOM      9  N1  UNL     1     -26.787 -30.278   4.521  0.00  0.00    -0.017 NA
ATOM     10  N2  UNL     1     -25.890 -29.975   3.922  0.00  0.00    -0.126 NA
ENDBRANCH   1  10
BRANCH   6  11
ATOM     11  S1  UNL     1     -21.822 -30.738   7.239  0.00  0.00    -0.089 S 
ATOM     12  C7  UNL     1     -23.357 -29.968   7.838  0.00  0.00    +0.093 C 
ENDBRANCH   6  11
BRANCH   4  13
ATOM     13  N5  UNL     1     -20.050 -28.957   2.735  0.00  0.00    -0.213 NA
BRANCH  13  14
ATOM     14  C3  UNL     1     -18.825 -29.723   2.494  0.00  0.00    +0.091 C 
ATOM     15  C4  UNL     1     -18.418 -29.671   1.018  0.00  0.00    +0.029 C 
ATOM     16  C5  UNL     1     -17.692 -29.263   3.416  0.00  0.00    +0.029 C 
ENDBRANCH  13  14
ENDBRANCH   4  13
TORSDOF 4
ENDMDL
MODEL 9
REMARK minimizedAffinity -3.73354173
REMARK minimizedRMSD -1
REMARK  Name = /home/tchapet/Post-Doc/ARTICLES-DOSSIERS-DES-ARTICLES-EN-REDACTION/NOUVELS-AXES-DE-RECHERCHE-A-REGARDER-URGEMMENT/ARTICLES-EN-REDACTIONS/ARTICLE_MVOTO/Paper2_Sensors_ActuatorsB/docking_rerun/ligands/20778.pdb
REMARK  7 active torsions:
REMARK  status: ('A' for Active; 'I' for Inactive)
REMARK    1  A    between atoms: N2_2  and  N3_3
REMARK    2  A    between atoms: C2_6  and  N5_7
REMARK    3  A    between atoms: N5_7  and  C3_8
REMARK    4  A    between atoms: C3_8  and  C4_9
REMARK    5  A    between atoms: C3_8  and  C5_10
REMARK    6  A    between atoms: C6_12  and  S1_14
REMARK    7  A    between atoms: S1_14  and  C7_15
REMARK                            x       y       z     vdW  Elec       q    Type
REMARK                         _______ _______ _______ _____ _____    ______ ____
ROOT
ATOM      1  N3  UNL     1      -1.370 -10.450   7.640  0.00  0.00    -0.126 N 
ATOM      2  C1  UNL     1      -1.060  -9.919   6.350  0.00  0.00    +0.252 A 
ATOM      3  N4  UNL     1      -0.857  -8.584   6.200  0.00  0.00    -0.178 NA
ATOM      4  C2  UNL     1      -0.563  -8.069   4.980  0.00  0.00    +0.240 A 
ATOM      5  N6  UNL     1      -0.470  -8.895   3.907  0.00  0.00    -0.187 NA
ATOM      6  C6  UNL     1      -0.670 -10.228   4.051  0.00  0.00    +0.194 A 
ATOM      7  N7  UNL     1      -0.965 -10.740   5.272  0.00  0.00    -0.187 NA
ATOM      8  H1  UNL     1      -1.441  -9.811   8.463  0.00  0.00    +0.193 HD
ENDROOT
BRANCH   1  10
ATOM      9  N1  UNL     1      -1.742 -12.878   7.957  0.00  0.00    -0.017 NA
ATOM     10  N2  UNL     1      -1.574 -11.779   7.814  0.00  0.00    -0.126 NA
ENDBRANCH   1  10
BRANCH   6  11
ATOM     11  S1  UNL     1      -0.542 -11.310   2.633  0.00  0.00    -0.089 S 
ATOM     12  C7  UNL     1      -0.611 -12.824   3.640  0.00  0.00    +0.093 C 
ENDBRANCH   6  11
BRANCH   4  13
ATOM     13  N5  UNL     1      -0.348  -6.657   4.847  0.00  0.00    -0.213 NA
BRANCH  13  14
ATOM     14  C3  UNL     1       0.945  -5.975   4.761  0.00  0.00    +0.091 C 
ATOM     15  C4  UNL     1       0.916  -4.857   3.715  0.00  0.00    +0.029 C 
ATOM     16  C5  UNL     1       1.396  -5.462   6.132  0.00  0.00    +0.029 C 
ENDBRANCH  13  14
ENDBRANCH   4  13
TORSDOF 4
ENDMDL
