MODEL 1
REMARK minimizedAffinity -4.31484652
REMARK minimizedRMSD -1
REMARK  Name = /home/tchapet/Post-Doc/ARTICLES-DOSSIERS-DES-ARTICLES-EN-REDACTION/NOUVELS-AXES-DE-RECHERCHE-A-REGARDER-URGEMMENT/ARTICLES-EN-REDACTIONS/ARTICLE_MVOTO/Paper2_Sensors_ActuatorsB/docking_rerun/ligands/20778.pdb
REMARK  7 active torsions:
REMARK  status: ('A' for Active; 'I' for Inactive)
REMARK    1  A    between atoms: N2_2  and  N3_3
REMARK    2  A    between atoms: C2_6  and  N5_7
REMARK    3  A    between atoms: N5_7  and  C3_8
REMARK    4  A    between atoms: C3_8  and  C4_9
REMARK    5  A    between atoms: C3_8  and  C5_10
REMARK    6  A    between atoms: C6_12  and  S1_14
REMARK    7  A    between atoms: S1_14  and  C7_15
REMARK                            x       y       z     vdW  Elec       q    Type
REMARK                         _______ _______ _______ _____ _____    ______ ____
ROOT
ATOM      1  N3  UNL     1      -1.980 -13.240  22.472  0.00  0.00    -0.126 N 
ATOM      2  C1  UNL     1      -1.315 -13.641  21.272  0.00  0.00    +0.252 A 
ATOM      3  N4  UNL     1      -1.618 -13.033  20.096  0.00  0.00    -0.178 NA
ATOM      4  C2  UNL     1      -0.993 -13.405  18.951  0.00  0.00    +0.240 A 
ATOM      5  N6  UNL     1      -0.060 -14.391  18.986  0.00  0.00    -0.187 NA
ATOM      6  C6  UNL     1       0.249 -14.999  20.157  0.00  0.00    +0.194 A 
ATOM      7  N7  UNL     1      -0.379 -14.625  21.300  0.00  0.00    -0.187 NA
ATOM      8  H1  UNL     1      -2.698 -12.482  22.441  0.00  0.00    +0.193 HD
ENDROOT
BRANCH   1  10
ATOM      9  N1  UNL     1      -1.452 -14.318  24.638  0.00  0.00    -0.017 NA
ATOM     10  N2  UNL     1      -1.691 -13.831  23.658  0.00  0.00    -0.126 NA
ENDBRANCH   1  10
BRANCH   6  11
ATOM     11  S1  UNL     1       1.483 -16.293  20.195  0.00  0.00    -0.089 S 
ATOM     12  C7  UNL     1       1.496 -16.383  22.012  0.00  0.00    +0.093 C 
ENDBRANCH   6  11
BRANCH   4  13
ATOM     13  N5  UNL     1      -1.328 -12.746  17.722  0.00  0.00    -0.213 NA
BRANCH  13  14
ATOM     14  C3  UNL     1      -2.015 -11.460  17.581  0.00  0.00    +0.091 C 
ATOM     15  C4  UNL     1      -1.033 -10.289  17.686  0.00  0.00    +0.029 C 
ATOM     16  C5  UNL     1      -2.832 -11.406  16.287  0.00  0.00    +0.029 C 
ENDBRANCH  13  14
ENDBRANCH   4  13
TORSDOF 4
ENDMDL
MODEL 2
REMARK minimizedAffinity -4.26567364
REMARK minimizedRMSD -1
REMARK  Name = /home/tchapet/Post-Doc/ARTICLES-DOSSIERS-DES-ARTICLES-EN-REDACTION/NOUVELS-AXES-DE-RECHERCHE-A-REGARDER-URGEMMENT/ARTICLES-EN-REDACTIONS/ARTICLE_MVOTO/Paper2_Sensors_ActuatorsB/docking_rerun/ligands/20778.pdb
REMARK  7 active torsions:
REMARK  status: ('A' for Active; 'I' for Inactive)
REMARK    1  A    between atoms: N2_2  and  N3_3
REMARK    2  A    between atoms: C2_6  and  N5_7
REMARK    3  A    between atoms: N5_7  and  C3_8
REMARK    4  A    between atoms: C3_8  and  C4_9
REMARK    5  A    between atoms: C3_8  and  C5_10
REMARK    6  A    between atoms: C6_12  and  S1_14
REMARK    7  A    between atoms: S1_14  and  C7_15
REMARK                            x       y       z     vdW  Elec       q    Type
REMARK                         _______ _______ _______ _____ _____    ______ ____
ROOT
ATOM      1  N3  UNL     1       9.179 -20.539   2.438  0.00  0.00    -0.126 N 
ATOM      2  C1  UNL     1      10.542 -20.856   2.152  0.00  0.00    +0.252 A 
ATOM      3  N4  UNL     1      11.145 -20.322   1.058  0.00  0.00    -0.178 NA
ATOM      4  C2  UNL     1      12.439 -20.617   0.776  0.00  0.00    +0.240 A 
ATOM      5  N6  UNL     1      13.131 -21.449   1.595  0.00  0.00    -0.187 NA
ATOM      6  C6  UNL     1      12.536 -21.983   2.689  0.00  0.00    +0.194 A 
ATOM      7  N7  UNL     1      11.241 -21.688   2.968  0.00  0.00    -0.187 NA
ATOM      8  H1  UNL     1       8.649 -19.899   1.806  0.00  0.00    +0.193 HD
ENDROOT
BRANCH   1  10
ATOM      9  N1  UNL     1       8.044 -21.488   4.425  0.00  0.00    -0.017 NA
ATOM     10  N2  UNL     1       8.557 -21.058   3.527  0.00  0.00    -0.126 NA
ENDBRANCH   1  10
BRANCH   6  11
ATOM     11  S1  UNL     1      13.457 -23.075   3.765  0.00  0.00    -0.089 S 
ATOM     12  C7  UNL     1      15.025 -22.192   3.506  0.00  0.00    +0.093 C 
ENDBRANCH   6  11
BRANCH   4  13
ATOM     13  N5  UNL     1      13.054 -20.037  -0.382  0.00  0.00    -0.213 NA
BRANCH  13  14
ATOM     14  C3  UNL     1      12.806 -18.699  -0.925  0.00  0.00    +0.091 C 
ATOM     15  C4  UNL     1      13.508 -17.622  -0.093  0.00  0.00    +0.029 C 
ATOM     16  C5  UNL     1      13.192 -18.619  -2.405  0.00  0.00    +0.029 C 
ENDBRANCH  13  14
ENDBRANCH   4  13
TORSDOF 4
ENDMDL
MODEL 3
REMARK minimizedAffinity -4.23435593
REMARK minimizedRMSD -1
REMARK  Name = /home/tchapet/Post-Doc/ARTICLES-DOSSIERS-DES-ARTICLES-EN-REDACTION/NOUVELS-AXES-DE-RECHERCHE-A-REGARDER-URGEMMENT/ARTICLES-EN-REDACTIONS/ARTICLE_MVOTO/Paper2_Sensors_ActuatorsB/docking_rerun/ligands/20778.pdb
REMARK  7 active torsions:
REMARK  status: ('A' for Active; 'I' for Inactive)
REMARK    1  A    between atoms: N2_2  and  N3_3
REMARK    2  A    between atoms: C2_6  and  N5_7
REMARK    3  A    between atoms: N5_7  and  C3_8
REMARK    4  A    between atoms: C3_8  and  C4_9
REMARK    5  A    between atoms: C3_8  and  C5_10
REMARK    6  A    between atoms: C6_12  and  S1_14
REMARK    7  A    between atoms: S1_14  and  C7_15
REMARK                            x       y       z     vdW  Elec       q    Type
REMARK                         _______ _______ _______ _____ _____    ______ ____
ROOT
ATOM      1  N3  UNL     1       1.632 -16.097  14.353  0.00  0.00    -0.126 N 
ATOM      2  C1  UNL     1       0.445 -15.308  14.241  0.00  0.00    +0.252 A 
ATOM      3  N4  UNL     1       0.353 -14.129  14.908  0.00  0.00    -0.178 NA
ATOM      4  C2  UNL     1      -0.769 -13.372  14.810  0.00  0.00    +0.240 A 
ATOM      5  N6  UNL     1      -1.801 -13.799  14.039  0.00  0.00    -0.187 NA
ATOM      6  C6  UNL     1      -1.714 -14.975  13.370  0.00  0.00    +0.194 A 
ATOM      7  N7  UNL     1      -0.591 -15.730  13.471  0.00  0.00    -0.187 NA
ATOM      8  H1  UNL     1       2.424 -15.766  14.947  0.00  0.00    +0.193 HD
ENDROOT
BRANCH   1  10
ATOM      9  N1  UNL     1       1.842 -18.251  13.149  0.00  0.00    -0.017 NA
ATOM     10  N2  UNL     1       1.747 -17.277  13.694  0.00  0.00    -0.126 NA
ENDBRANCH   1  10
BRANCH   6  11
ATOM     11  S1  UNL     1      -3.077 -15.528  12.353  0.00  0.00    -0.089 S 
ATOM     12  C7  UNL     1      -1.989 -16.281  11.105  0.00  0.00    +0.093 C 
ENDBRANCH   6  11
BRANCH   4  13
ATOM     13  N5  UNL     1      -0.840 -12.128  15.520  0.00  0.00    -0.213 NA
BRANCH  13  14
ATOM     14  C3  UNL     1      -1.653 -11.845  16.705  0.00  0.00    +0.091 C 
ATOM     15  C4  UNL     1      -0.988 -10.792  17.597  0.00  0.00    +0.029 C 
ATOM     16  C5  UNL     1      -3.080 -11.446  16.318  0.00  0.00    +0.029 C 
ENDBRANCH  13  14
ENDBRANCH   4  13
TORSDOF 4
ENDMDL
MODEL 4
REMARK minimizedAffinity -4.21512985
REMARK minimizedRMSD -1
REMARK  Name = /home/tchapet/Post-Doc/ARTICLES-DOSSIERS-DES-ARTICLES-EN-REDACTION/NOUVELS-AXES-DE-RECHERCHE-A-REGARDER-URGEMMENT/ARTICLES-EN-REDACTIONS/ARTICLE_MVOTO/Paper2_Sensors_ActuatorsB/docking_rerun/ligands/20778.pdb
REMARK  7 active torsions:
REMARK  status: ('A' for Active; 'I' for Inactive)
REMARK    1  A    between atoms: N2_2  and  N3_3
REMARK    2  A    between atoms: C2_6  and  N5_7
REMARK    3  A    between atoms: N5_7  and  C3_8
REMARK    4  A    between atoms: C3_8  and  C4_9
REMARK    5  A    between atoms: C3_8  and  C5_10
REMARK    6  A    between atoms: C6_12  and  S1_14
REMARK    7  A    between atoms: S1_14  and  C7_15
REMARK                            x       y       z     vdW  Elec       q    Type
REMARK                         _______ _______ _______ _____ _____    ______ ____
ROOT
ATOM      1  N3  UNL     1       1.122 -15.861  18.810  0.00  0.00    -0.126 N 
ATOM      2  C1  UNL     1       0.191 -14.962  19.416  0.00  0.00    +0.252 A 
ATOM      3  N4  UNL     1      -0.567 -14.147  18.637  0.00  0.00    -0.178 NA
ATOM      4  C2  UNL     1      -1.454 -13.290  19.202  0.00  0.00    +0.240 A 
ATOM      5  N6  UNL     1      -1.582 -13.250  20.553  0.00  0.00    -0.187 NA
ATOM      6  C6  UNL     1      -0.830 -14.062  21.335  0.00  0.00    +0.194 A 
ATOM      7  N7  UNL     1       0.057 -14.917  20.768  0.00  0.00    -0.187 NA
ATOM      8  H1  UNL     1       1.218 -15.888  17.771  0.00  0.00    +0.193 HD
ENDROOT
BRANCH   1  10
ATOM      9  N1  UNL     1       2.519 -17.367  20.194  0.00  0.00    -0.017 NA
ATOM     10  N2  UNL     1       1.887 -16.685  19.568  0.00  0.00    -0.126 NA
ENDBRANCH   1  10
BRANCH   6  11
ATOM     11  S1  UNL     1      -1.008 -14.006  23.113  0.00  0.00    -0.089 S 
ATOM     12  C7  UNL     1       0.169 -15.366  23.387  0.00  0.00    +0.093 C 
ENDBRANCH   6  11
BRANCH   4  13
ATOM     13  N5  UNL     1      -2.246 -12.443  18.358  0.00  0.00    -0.213 NA
BRANCH  13  14
ATOM     14  C3  UNL     1      -1.765 -11.634  17.235  0.00  0.00    +0.091 C 
ATOM     15  C4  UNL     1      -2.881 -11.378  16.216  0.00  0.00    +0.029 C 
ATOM     16  C5  UNL     1      -1.126 -10.330  17.722  0.00  0.00    +0.029 C 
ENDBRANCH  13  14
ENDBRANCH   4  13
TORSDOF 4
ENDMDL
MODEL 5
REMARK minimizedAffinity -4.20160675
REMARK minimizedRMSD -1
REMARK  Name = /home/tchapet/Post-Doc/ARTICLES-DOSSIERS-DES-ARTICLES-EN-REDACTION/NOUVELS-AXES-DE-RECHERCHE-A-REGARDER-URGEMMENT/ARTICLES-EN-REDACTIONS/ARTICLE_MVOTO/Paper2_Sensors_ActuatorsB/docking_rerun/ligands/20778.pdb
REMARK  7 active torsions:
REMARK  status: ('A' for Active; 'I' for Inactive)
REMARK    1  A    between atoms: N2_2  and  N3_3
REMARK    2  A    between atoms: C2_6  and  N5_7
REMARK    3  A    between atoms: N5_7  and  C3_8
REMARK    4  A    between atoms: C3_8  and  C4_9
REMARK    5  A    between atoms: C3_8  and  C5_10
REMARK    6  A    between atoms: C6_12  and  S1_14
REMARK    7  A    between atoms: S1_14  and  C7_15
REMARK                            x       y       z     vdW  Elec       q    Type
REMARK                         _______ _______ _______ _____ _____    ______ ____
ROOT
ATOM      1  N3  UNL     1      -0.375 -15.114  12.752  0.00  0.00    -0.126 N 
ATOM      2  C1  UNL     1      -0.466 -14.921  14.165  0.00  0.00    +0.252 A 
ATOM      3  N4  UNL     1      -0.404 -13.666  14.681  0.00  0.00    -0.178 NA
ATOM      4  C2  UNL     1      -0.489 -13.471  16.021  0.00  0.00    +0.240 A 
ATOM      5  N6  UNL     1      -0.638 -14.539  16.846  0.00  0.00    -0.187 NA
ATOM      6  C6  UNL     1      -0.703 -15.793  16.337  0.00  0.00    +0.194 A 
ATOM      7  N7  UNL     1      -0.616 -15.985  14.996  0.00  0.00    -0.187 NA
ATOM      8  H1  UNL     1      -0.259 -14.291  12.120  0.00  0.00    +0.193 HD
ENDROOT
BRANCH   1  10
ATOM      9  N1  UNL     1      -0.488 -17.386  11.771  0.00  0.00    -0.017 NA
ATOM     10  N2  UNL     1      -0.437 -16.358  12.214  0.00  0.00    -0.126 NA
ENDBRANCH   1  10
BRANCH   6  11
ATOM     11  S1  UNL     1      -0.904 -17.194  17.431  0.00  0.00    -0.089 S 
ATOM     12  C7  UNL     1      -1.342 -16.158  18.860  0.00  0.00    +0.093 C 
ENDBRANCH   6  11
BRANCH   4  13
ATOM     13  N5  UNL     1      -0.426 -12.137  16.541  0.00  0.00    -0.213 NA
BRANCH  13  14
ATOM     14  C3  UNL     1      -1.495 -11.421  17.243  0.00  0.00    +0.091 C 
ATOM     15  C4  UNL     1      -1.037 -10.026  17.679  0.00  0.00    +0.029 C 
ATOM     16  C5  UNL     1      -2.773 -11.366  16.400  0.00  0.00    +0.029 C 
ENDBRANCH  13  14
ENDBRANCH   4  13
TORSDOF 4
ENDMDL
MODEL 6
REMARK minimizedAffinity -4.11804152
REMARK minimizedRMSD -1
REMARK  Name = /home/tchapet/Post-Doc/ARTICLES-DOSSIERS-DES-ARTICLES-EN-REDACTION/NOUVELS-AXES-DE-RECHERCHE-A-REGARDER-URGEMMENT/ARTICLES-EN-REDACTIONS/ARTICLE_MVOTO/Paper2_Sensors_ActuatorsB/docking_rerun/ligands/20778.pdb
REMARK  7 active torsions:
REMARK  status: ('A' for Active; 'I' for Inactive)
REMARK    1  A    between atoms: N2_2  and  N3_3
REMARK    2  A    between atoms: C2_6  and  N5_7
REMARK    3  A    between atoms: N5_7  and  C3_8
REMARK    4  A    between atoms: C3_8  and  C4_9
REMARK    5  A    between atoms: C3_8  and  C5_10
REMARK    6  A    between atoms: C6_12  and  S1_14
REMARK    7  A    between atoms: S1_14  and  C7_15
REMARK                            x       y       z     vdW  Elec       q    Type
REMARK                         _______ _______ _______ _____ _____    ______ ____
ROOT
ATOM      1  N3  UNL     1      10.440   0.566   2.879  0.00  0.00    -0.126 N 
ATOM      2  C1  UNL     1      10.012  -0.431   1.948  0.00  0.00    +0.252 A 
ATOM      3  N4  UNL     1       8.832  -1.074   2.141  0.00  0.00    -0.178 NA
ATOM      4  C2  UNL     1       8.416  -2.022   1.263  0.00  0.00    +0.240 A 
ATOM      5  N6  UNL     1       9.188  -2.325   0.188  0.00  0.00    -0.187 NA
ATOM      6  C6  UNL     1      10.366  -1.684  -0.011  0.00  0.00    +0.194 A 
ATOM      7  N7  UNL     1      10.779  -0.738   0.869  0.00  0.00    -0.187 NA
ATOM      8  H1  UNL     1       9.844   0.795   3.706  0.00  0.00    +0.193 HD
ENDROOT
BRANCH   1  10
ATOM      9  N1  UNL     1      12.584   1.764   2.561  0.00  0.00    -0.017 NA
ATOM     10  N2  UNL     1      11.614   1.222   2.705  0.00  0.00    -0.126 NA
ENDBRANCH   1  10
BRANCH   6  11
ATOM     11  S1  UNL     1      11.373  -2.087  -1.432  0.00  0.00    -0.089 S 
ATOM     12  C7  UNL     1       9.948  -2.181  -2.558  0.00  0.00    +0.093 C 
ENDBRANCH   6  11
BRANCH   4  13
ATOM     13  N5  UNL     1       7.164  -2.684   1.486  0.00  0.00    -0.213 NA
BRANCH  13  14
ATOM     14  C3  UNL     1       6.099  -2.890   0.502  0.00  0.00    +0.091 C 
ATOM     15  C4  UNL     1       4.974  -3.760   1.074  0.00  0.00    +0.029 C 
ATOM     16  C5  UNL     1       5.572  -1.556  -0.035  0.00  0.00    +0.029 C 
ENDBRANCH  13  14
ENDBRANCH   4  13
TORSDOF 4
ENDMDL
MODEL 7
REMARK minimizedAffinity -4.09143353
REMARK minimizedRMSD -1
REMARK  Name = /home/tchapet/Post-Doc/ARTICLES-DOSSIERS-DES-ARTICLES-EN-REDACTION/NOUVELS-AXES-DE-RECHERCHE-A-REGARDER-URGEMMENT/ARTICLES-EN-REDACTIONS/ARTICLE_MVOTO/Paper2_Sensors_ActuatorsB/docking_rerun/ligands/20778.pdb
REMARK  7 active torsions:
REMARK  status: ('A' for Active; 'I' for Inactive)
REMARK    1  A    between atoms: N2_2  and  N3_3
REMARK    2  A    between atoms: C2_6  and  N5_7
REMARK    3  A    between atoms: N5_7  and  C3_8
REMARK    4  A    between atoms: C3_8  and  C4_9
REMARK    5  A    between atoms: C3_8  and  C5_10
REMARK    6  A    between atoms: C6_12  and  S1_14
REMARK    7  A    between atoms: S1_14  and  C7_15
REMARK                            x       y       z     vdW  Elec       q    Type
REMARK                         _______ _______ _______ _____ _____    ______ ____
ROOT
ATOM      1  N3  UNL     1      -2.043   1.640   1.459  0.00  0.00    -0.126 N 
ATOM      2  C1  UNL     1      -1.304   0.440   1.698  0.00  0.00    +0.252 A 
ATOM      3  N4  UNL     1       0.054   0.468   1.681  0.00  0.00    -0.178 NA
ATOM      4  C2  UNL     1       0.765  -0.665   1.907  0.00  0.00    +0.240 A 
ATOM      5  N6  UNL     1       0.113  -1.830   2.151  0.00  0.00    -0.187 NA
ATOM      6  C6  UNL     1      -1.242  -1.863   2.171  0.00  0.00    +0.194 A 
ATOM      7  N7  UNL     1      -1.951  -0.729   1.944  0.00  0.00    -0.187 NA
ATOM      8  H1  UNL     1      -1.538   2.534   1.271  0.00  0.00    +0.193 HD
ENDROOT
BRANCH   1  10
ATOM      9  N1  UNL     1      -4.520   1.633   1.485  0.00  0.00    -0.017 NA
ATOM     10  N2  UNL     1      -3.399   1.636   1.473  0.00  0.00    -0.126 NA
ENDBRANCH   1  10
BRANCH   6  11
ATOM     11  S1  UNL     1      -2.094  -3.401   2.497  0.00  0.00    -0.089 S 
ATOM     12  C7  UNL     1      -3.500  -2.582   3.309  0.00  0.00    +0.093 C 
ENDBRANCH   6  11
BRANCH   4  13
ATOM     13  N5  UNL     1       2.198  -0.608   1.889  0.00  0.00    -0.213 NA
BRANCH  13  14
ATOM     14  C3  UNL     1       3.083  -1.216   0.891  0.00  0.00    +0.091 C 
ATOM     15  C4  UNL     1       3.478  -2.641   1.292  0.00  0.00    +0.029 C 
ATOM     16  C5  UNL     1       2.460  -1.168  -0.507  0.00  0.00    +0.029 C 
ENDBRANCH  13  14
ENDBRANCH   4  13
TORSDOF 4
ENDMDL
MODEL 8
REMARK minimizedAffinity -4.01889181
REMARK minimizedRMSD -1
REMARK  Name = /home/tchapet/Post-Doc/ARTICLES-DOSSIERS-DES-ARTICLES-EN-REDACTION/NOUVELS-AXES-DE-RECHERCHE-A-REGARDER-URGEMMENT/ARTICLES-EN-REDACTIONS/ARTICLE_MVOTO/Paper2_Sensors_ActuatorsB/docking_rerun/ligands/20778.pdb
REMARK  7 active torsions:
REMARK  status: ('A' for Active; 'I' for Inactive)
REMARK    1  A    between atoms: N2_2  and  N3_3
REMARK    2  A    between atoms: C2_6  and  N5_7
REMARK    3  A    between atoms: N5_7  and  C3_8
REMARK    4  A    between atoms: C3_8  and  C4_9
REMARK    5  A    between atoms: C3_8  and  C5_10
REMARK    6  A    between atoms: C6_12  and  S1_14
REMARK    7  A    between atoms: S1_14  and  C7_15
REMARK                            x       y       z     vdW  Elec       q    Type
REMARK                         _______ _______ _______ _____ _____    ______ ____
ROOT
ATOM      1  N3  UNL     1       0.694 -14.695  21.602  0.00  0.00    -0.126 N 
ATOM      2  C1  UNL     1       0.091 -14.684  20.306  0.00  0.00    +0.252 A 
ATOM      3  N4  UNL     1      -0.649 -13.615  19.914  0.00  0.00    -0.178 NA
ATOM      4  C2  UNL     1      -1.226 -13.594  18.687  0.00  0.00    +0.240 A 
ATOM      5  N6  UNL     1      -1.059 -14.649  17.849  0.00  0.00    -0.187 NA
ATOM      6  C6  UNL     1      -0.319 -15.718  18.234  0.00  0.00    +0.194 A 
ATOM      7  N7  UNL     1       0.256 -15.736  19.463  0.00  0.00    -0.187 NA
ATOM      8  H1  UNL     1       0.563 -13.882  22.245  0.00  0.00    +0.193 HD
ENDROOT
BRANCH   1  10
ATOM      9  N1  UNL     1       2.055 -16.623  22.354  0.00  0.00    -0.017 NA
ATOM     10  N2  UNL     1       1.440 -15.750  22.014  0.00  0.00    -0.126 NA
ENDBRANCH   1  10
BRANCH   6  11
ATOM     11  S1  UNL     1      -0.100 -17.101  17.122  0.00  0.00    -0.089 S 
ATOM     12  C7  UNL     1       1.383 -17.706  17.984  0.00  0.00    +0.093 C 
ENDBRANCH   6  11
BRANCH   4  13
ATOM     13  N5  UNL     1      -1.999 -12.452  18.294  0.00  0.00    -0.213 NA
BRANCH  13  14
ATOM     14  C3  UNL     1      -1.709 -11.541  17.184  0.00  0.00    +0.091 C 
ATOM     15  C4  UNL     1      -2.940 -11.339  16.294  0.00  0.00    +0.029 C 
ATOM     16  C5  UNL     1      -1.145 -10.210  17.689  0.00  0.00    +0.029 C 
ENDBRANCH  13  14
ENDBRANCH   4  13
TORSDOF 4
ENDMDL
MODEL 9
REMARK minimizedAffinity -3.98252296
REMARK minimizedRMSD -1
REMARK  Name = /home/tchapet/Post-Doc/ARTICLES-DOSSIERS-DES-ARTICLES-EN-REDACTION/NOUVELS-AXES-DE-RECHERCHE-A-REGARDER-URGEMMENT/ARTICLES-EN-REDACTIONS/ARTICLE_MVOTO/Paper2_Sensors_ActuatorsB/docking_rerun/ligands/20778.pdb
REMARK  7 active torsions:
REMARK  status: ('A' for Active; 'I' for Inactive)
REMARK    1  A    between atoms: N2_2  and  N3_3
REMARK    2  A    between atoms: C2_6  and  N5_7
REMARK    3  A    between atoms: N5_7  and  C3_8
REMARK    4  A    between atoms: C3_8  and  C4_9
REMARK    5  A    between atoms: C3_8  and  C5_10
REMARK    6  A    between atoms: C6_12  and  S1_14
REMARK    7  A    between atoms: S1_14  and  C7_15
REMARK                            x       y       z     vdW  Elec       q    Type
REMARK                         _______ _______ _______ _____ _____    ______ ____
ROOT
ATOM      1  N3  UNL     1      -2.731 -13.890  12.493  0.00  0.00    -0.126 N 
ATOM      2  C1  UNL     1      -1.935 -14.122  13.657  0.00  0.00    +0.252 A 
ATOM      3  N4  UNL     1      -1.614 -13.085  14.474  0.00  0.00    -0.178 NA
ATOM      4  C2  UNL     1      -0.859 -13.293  15.582  0.00  0.00    +0.240 A 
ATOM      5  N6  UNL     1      -0.426 -14.547  15.873  0.00  0.00    -0.187 NA
ATOM      6  C6  UNL     1      -0.746 -15.586  15.063  0.00  0.00    +0.194 A 
ATOM      7  N7  UNL     1      -1.500 -15.374  13.955  0.00  0.00    -0.187 NA
ATOM      8  H1  UNL     1      -3.061 -12.924  12.272  0.00  0.00    +0.193 HD
ENDROOT
BRANCH   1  10
ATOM      9  N1  UNL     1      -3.342 -15.754  10.981  0.00  0.00    -0.017 NA
ATOM     10  N2  UNL     1      -3.066 -14.910  11.665  0.00  0.00    -0.126 NA
ENDBRANCH   1  10
BRANCH   6  11
ATOM     11  S1  UNL     1      -0.175 -17.234  15.455  0.00  0.00    -0.089 S 
ATOM     12  C7  UNL     1       1.455 -16.975  14.691  0.00  0.00    +0.093 C 
ENDBRANCH   6  11
BRANCH   4  13
ATOM     13  N5  UNL     1      -0.537 -12.184  16.430  0.00  0.00    -0.213 NA
BRANCH  13  14
ATOM     14  C3  UNL     1      -1.437 -11.517  17.375  0.00  0.00    +0.091 C 
ATOM     15  C4  UNL     1      -1.548 -12.302  18.686  0.00  0.00    +0.029 C 
ATOM     16  C5  UNL     1      -1.015 -10.064  17.614  0.00  0.00    +0.029 C 
ENDBRANCH  13  14
ENDBRANCH   4  13
TORSDOF 4
ENDMDL
