MODEL 1
REMARK minimizedAffinity -4.74269581
REMARK minimizedRMSD -1
REMARK  Name = /home/tchapet/Post-Doc/ARTICLES-DOSSIERS-DES-ARTICLES-EN-REDACTION/NOUVELS-AXES-DE-RECHERCHE-A-REGARDER-URGEMMENT/ARTICLES-EN-REDACTIONS/ARTICLE_MVOTO/Paper2_Sensors_ActuatorsB/docking_rerun/ligands/20778.pdb
REMARK  7 active torsions:
REMARK  status: ('A' for Active; 'I' for Inactive)
REMARK    1  A    between atoms: N2_2  and  N3_3
REMARK    2  A    between atoms: C2_6  and  N5_7
REMARK    3  A    between atoms: N5_7  and  C3_8
REMARK    4  A    between atoms: C3_8  and  C4_9
REMARK    5  A    between atoms: C3_8  and  C5_10
REMARK    6  A    between atoms: C6_12  and  S1_14
REMARK    7  A    between atoms: S1_14  and  C7_15
REMARK                            x       y       z     vdW  Elec       q    Type
REMARK                         _______ _______ _______ _____ _____    ______ ____
ROOT
ATOM      1  N3  UNL     1     -16.159  33.219  19.247  0.00  0.00    -0.126 N 
ATOM      2  C1  UNL     1     -17.045  33.858  18.326  0.00  0.00    +0.252 A 
ATOM      3  N4  UNL     1     -17.892  34.826  18.763  0.00  0.00    -0.178 NA
ATOM      4  C2  UNL     1     -18.738  35.439  17.898  0.00  0.00    +0.240 A 
ATOM      5  N6  UNL     1     -18.734  35.081  16.588  0.00  0.00    -0.187 NA
ATOM      6  C6  UNL     1     -17.890  34.117  16.145  0.00  0.00    +0.194 A 
ATOM      7  N7  UNL     1     -17.046  33.505  17.014  0.00  0.00    -0.187 NA
ATOM      8  H1  UNL     1     -16.165  33.496  20.253  0.00  0.00    +0.193 HD
ENDROOT
BRANCH   1  10
ATOM      9  N1  UNL     1     -14.596  31.454  18.488  0.00  0.00    -0.017 NA
ATOM     10  N2  UNL     1     -15.303  32.252  18.831  0.00  0.00    -0.126 NA
ENDBRANCH   1  10
BRANCH   6  11
ATOM     11  S1  UNL     1     -17.888  33.654  14.418  0.00  0.00    -0.089 S 
ATOM     12  C7  UNL     1     -19.533  32.884  14.506  0.00  0.00    +0.093 C 
ENDBRANCH   6  11
BRANCH   4  13
ATOM     13  N5  UNL     1     -19.619  36.460  18.383  0.00  0.00    -0.213 NA
BRANCH  13  14
ATOM     14  C3  UNL     1     -20.876  36.257  19.109  0.00  0.00    +0.091 C 
ATOM     15  C4  UNL     1     -21.678  35.094  18.517  0.00  0.00    +0.029 C 
ATOM     16  C5  UNL     1     -20.628  36.074  20.609  0.00  0.00    +0.029 C 
ENDBRANCH  13  14
ENDBRANCH   4  13
TORSDOF 4
ENDMDL
MODEL 2
REMARK minimizedAffinity -4.65006781
REMARK minimizedRMSD -1
REMARK  Name = /home/tchapet/Post-Doc/ARTICLES-DOSSIERS-DES-ARTICLES-EN-REDACTION/NOUVELS-AXES-DE-RECHERCHE-A-REGARDER-URGEMMENT/ARTICLES-EN-REDACTIONS/ARTICLE_MVOTO/Paper2_Sensors_ActuatorsB/docking_rerun/ligands/20778.pdb
REMARK  7 active torsions:
REMARK  status: ('A' for Active; 'I' for Inactive)
REMARK    1  A    between atoms: N2_2  and  N3_3
REMARK    2  A    between atoms: C2_6  and  N5_7
REMARK    3  A    between atoms: N5_7  and  C3_8
REMARK    4  A    between atoms: C3_8  and  C4_9
REMARK    5  A    between atoms: C3_8  and  C5_10
REMARK    6  A    between atoms: C6_12  and  S1_14
REMARK    7  A    between atoms: S1_14  and  C7_15
REMARK                            x       y       z     vdW  Elec       q    Type
REMARK                         _______ _______ _______ _____ _____    ______ ____
ROOT
ATOM      1  N3  UNL     1     -19.393   4.698   6.512  0.00  0.00    -0.126 N 
ATOM      2  C1  UNL     1     -18.189   4.001   6.838  0.00  0.00    +0.252 A 
ATOM      3  N4  UNL     1     -17.685   4.076   8.097  0.00  0.00    -0.178 NA
ATOM      4  C2  UNL     1     -16.542   3.418   8.418  0.00  0.00    +0.240 A 
ATOM      5  N6  UNL     1     -15.904   2.682   7.473  0.00  0.00    -0.187 NA
ATOM      6  C6  UNL     1     -16.403   2.602   6.215  0.00  0.00    +0.194 A 
ATOM      7  N7  UNL     1     -17.545   3.262   5.897  0.00  0.00    -0.187 NA
ATOM      8  H1  UNL     1     -19.881   5.264   7.242  0.00  0.00    +0.193 HD
ENDROOT
BRANCH   1  10
ATOM      9  N1  UNL     1     -20.348   4.585   4.230  0.00  0.00    -0.017 NA
ATOM     10  N2  UNL     1     -19.916   4.636   5.262  0.00  0.00    -0.126 NA
ENDBRANCH   1  10
BRANCH   6  11
ATOM     11  S1  UNL     1     -15.558   1.627   4.977  0.00  0.00    -0.089 S 
ATOM     12  C7  UNL     1     -14.015   1.540   5.936  0.00  0.00    +0.093 C 
ENDBRANCH   6  11
BRANCH   4  13
ATOM     13  N5  UNL     1     -16.032   3.508   9.755  0.00  0.00    -0.213 NA
BRANCH  13  14
ATOM     14  C3  UNL     1     -16.716   3.087  10.980  0.00  0.00    +0.091 C 
ATOM     15  C4  UNL     1     -15.815   2.196  11.841  0.00  0.00    +0.029 C 
ATOM     16  C5  UNL     1     -17.244   4.292  11.765  0.00  0.00    +0.029 C 
ENDBRANCH  13  14
ENDBRANCH   4  13
TORSDOF 4
ENDMDL
MODEL 3
REMARK minimizedAffinity -4.54204082
REMARK minimizedRMSD -1
REMARK  Name = /home/tchapet/Post-Doc/ARTICLES-DOSSIERS-DES-ARTICLES-EN-REDACTION/NOUVELS-AXES-DE-RECHERCHE-A-REGARDER-URGEMMENT/ARTICLES-EN-REDACTIONS/ARTICLE_MVOTO/Paper2_Sensors_ActuatorsB/docking_rerun/ligands/20778.pdb
REMARK  7 active torsions:
REMARK  status: ('A' for Active; 'I' for Inactive)
REMARK    1  A    between atoms: N2_2  and  N3_3
REMARK    2  A    between atoms: C2_6  and  N5_7
REMARK    3  A    between atoms: N5_7  and  C3_8
REMARK    4  A    between atoms: C3_8  and  C4_9
REMARK    5  A    between atoms: C3_8  and  C5_10
REMARK    6  A    between atoms: C6_12  and  S1_14
REMARK    7  A    between atoms: S1_14  and  C7_15
REMARK                            x       y       z     vdW  Elec       q    Type
REMARK                         _______ _______ _______ _____ _____    ______ ____
ROOT
ATOM      1  N3  UNL     1     -14.321  21.804   8.091  0.00  0.00    -0.126 N 
ATOM      2  C1  UNL     1     -13.683  22.293   9.273  0.00  0.00    +0.252 A 
ATOM      3  N4  UNL     1     -14.005  23.521   9.755  0.00  0.00    -0.178 NA
ATOM      4  C2  UNL     1     -13.405  23.996  10.876  0.00  0.00    +0.240 A 
ATOM      5  N6  UNL     1     -12.481  23.234  11.516  0.00  0.00    -0.187 NA
ATOM      6  C6  UNL     1     -12.158  22.007  11.040  0.00  0.00    +0.194 A 
ATOM      7  N7  UNL     1     -12.758  21.536   9.918  0.00  0.00    -0.187 NA
ATOM      8  H1  UNL     1     -15.031  22.392   7.601  0.00  0.00    +0.193 HD
ENDROOT
BRANCH   1  10
ATOM      9  N1  UNL     1     -13.768  19.568   7.180  0.00  0.00    -0.017 NA
ATOM     10  N2  UNL     1     -14.018  20.579   7.593  0.00  0.00    -0.126 NA
ENDBRANCH   1  10
BRANCH   6  11
ATOM     11  S1  UNL     1     -10.942  21.009  11.892  0.00  0.00    -0.089 S 
ATOM     12  C7  UNL     1      -9.993  22.452  12.463  0.00  0.00    +0.093 C 
ENDBRANCH   6  11
BRANCH   4  13
ATOM     13  N5  UNL     1     -13.765  25.293  11.369  0.00  0.00    -0.213 NA
BRANCH  13  14
ATOM     14  C3  UNL     1     -12.981  26.524  11.238  0.00  0.00    +0.091 C 
ATOM     15  C4  UNL     1     -13.888  27.741  11.025  0.00  0.00    +0.029 C 
ATOM     16  C5  UNL     1     -12.041  26.714  12.432  0.00  0.00    +0.029 C 
ENDBRANCH  13  14
ENDBRANCH   4  13
TORSDOF 4
ENDMDL
MODEL 4
REMARK minimizedAffinity -4.50614738
REMARK minimizedRMSD -1
REMARK  Name = /home/tchapet/Post-Doc/ARTICLES-DOSSIERS-DES-ARTICLES-EN-REDACTION/NOUVELS-AXES-DE-RECHERCHE-A-REGARDER-URGEMMENT/ARTICLES-EN-REDACTIONS/ARTICLE_MVOTO/Paper2_Sensors_ActuatorsB/docking_rerun/ligands/20778.pdb
REMARK  7 active torsions:
REMARK  status: ('A' for Active; 'I' for Inactive)
REMARK    1  A    between atoms: N2_2  and  N3_3
REMARK    2  A    between atoms: C2_6  and  N5_7
REMARK    3  A    between atoms: N5_7  and  C3_8
REMARK    4  A    between atoms: C3_8  and  C4_9
REMARK    5  A    between atoms: C3_8  and  C5_10
REMARK    6  A    between atoms: C6_12  and  S1_14
REMARK    7  A    between atoms: S1_14  and  C7_15
REMARK                            x       y       z     vdW  Elec       q    Type
REMARK                         _______ _______ _______ _____ _____    ______ ____
ROOT
ATOM      1  N3  UNL     1     -25.896  15.512   9.725  0.00  0.00    -0.126 N 
ATOM      2  C1  UNL     1     -25.304  14.635   8.764  0.00  0.00    +0.252 A 
ATOM      3  N4  UNL     1     -24.179  15.017   8.105  0.00  0.00    -0.178 NA
ATOM      4  C2  UNL     1     -23.608  14.193   7.191  0.00  0.00    +0.240 A 
ATOM      5  N6  UNL     1     -24.167  12.982   6.937  0.00  0.00    -0.187 NA
ATOM      6  C6  UNL     1     -25.288  12.595   7.594  0.00  0.00    +0.194 A 
ATOM      7  N7  UNL     1     -25.857  13.421   8.507  0.00  0.00    -0.187 NA
ATOM      8  H1  UNL     1     -25.465  16.443   9.917  0.00  0.00    +0.193 HD
ENDROOT
BRANCH   1  10
ATOM      9  N1  UNL     1     -27.944  14.852  10.952  0.00  0.00    -0.017 NA
ATOM     10  N2  UNL     1     -27.018  15.151  10.398  0.00  0.00    -0.126 NA
ENDBRANCH   1  10
BRANCH   6  11
ATOM     11  S1  UNL     1     -26.014  10.996   7.258  0.00  0.00    -0.089 S 
ATOM     12  C7  UNL     1     -26.038  11.259   5.458  0.00  0.00    +0.093 C 
ENDBRANCH   6  11
BRANCH   4  13
ATOM     13  N5  UNL     1     -22.419  14.616   6.511  0.00  0.00    -0.213 NA
BRANCH  13  14
ATOM     14  C3  UNL     1     -22.143  14.495   5.077  0.00  0.00    +0.091 C 
ATOM     15  C4  UNL     1     -22.566  15.759   4.321  0.00  0.00    +0.029 C 
ATOM     16  C5  UNL     1     -20.675  14.141   4.822  0.00  0.00    +0.029 C 
ENDBRANCH  13  14
ENDBRANCH   4  13
TORSDOF 4
ENDMDL
MODEL 5
REMARK minimizedAffinity -4.49712276
REMARK minimizedRMSD -1
REMARK  Name = /home/tchapet/Post-Doc/ARTICLES-DOSSIERS-DES-ARTICLES-EN-REDACTION/NOUVELS-AXES-DE-RECHERCHE-A-REGARDER-URGEMMENT/ARTICLES-EN-REDACTIONS/ARTICLE_MVOTO/Paper2_Sensors_ActuatorsB/docking_rerun/ligands/20778.pdb
REMARK  7 active torsions:
REMARK  status: ('A' for Active; 'I' for Inactive)
REMARK    1  A    between atoms: N2_2  and  N3_3
REMARK    2  A    between atoms: C2_6  and  N5_7
REMARK    3  A    between atoms: N5_7  and  C3_8
REMARK    4  A    between atoms: C3_8  and  C4_9
REMARK    5  A    between atoms: C3_8  and  C5_10
REMARK    6  A    between atoms: C6_12  and  S1_14
REMARK    7  A    between atoms: S1_14  and  C7_15
REMARK                            x       y       z     vdW  Elec       q    Type
REMARK                         _______ _______ _______ _____ _____    ______ ____
ROOT
ATOM      1  N3  UNL     1     -17.786  23.627  40.589  0.00  0.00    -0.126 N 
ATOM      2  C1  UNL     1     -17.031  23.393  41.780  0.00  0.00    +0.252 A 
ATOM      3  N4  UNL     1     -16.661  24.441  42.561  0.00  0.00    -0.178 NA
ATOM      4  C2  UNL     1     -15.944  24.231  43.694  0.00  0.00    +0.240 A 
ATOM      5  N6  UNL     1     -15.597  22.966  44.044  0.00  0.00    -0.187 NA
ATOM      6  C6  UNL     1     -15.966  21.917  43.269  0.00  0.00    +0.194 A 
ATOM      7  N7  UNL     1     -16.681  22.130  42.137  0.00  0.00    -0.187 NA
ATOM      8  H1  UNL     1     -18.050  24.601  40.322  0.00  0.00    +0.193 HD
ENDROOT
BRANCH   1  10
ATOM      9  N1  UNL     1     -18.484  21.744  39.139  0.00  0.00    -0.017 NA
ATOM     10  N2  UNL     1     -18.168  22.596  39.795  0.00  0.00    -0.126 NA
ENDBRANCH   1  10
BRANCH   6  11
ATOM     11  S1  UNL     1     -15.509  20.253  43.740  0.00  0.00    -0.089 S 
ATOM     12  C7  UNL     1     -13.814  20.728  44.199  0.00  0.00    +0.093 C 
ENDBRANCH   6  11
BRANCH   4  13
ATOM     13  N5  UNL     1     -15.569  25.353  44.505  0.00  0.00    -0.213 NA
BRANCH  13  14
ATOM     14  C3  UNL     1     -16.395  26.009  45.522  0.00  0.00    +0.091 C 
ATOM     15  C4  UNL     1     -15.536  26.564  46.663  0.00  0.00    +0.029 C 
ATOM     16  C5  UNL     1     -17.287  27.088  44.902  0.00  0.00    +0.029 C 
ENDBRANCH  13  14
ENDBRANCH   4  13
TORSDOF 4
ENDMDL
MODEL 6
REMARK minimizedAffinity -4.49221373
REMARK minimizedRMSD -1
REMARK  Name = /home/tchapet/Post-Doc/ARTICLES-DOSSIERS-DES-ARTICLES-EN-REDACTION/NOUVELS-AXES-DE-RECHERCHE-A-REGARDER-URGEMMENT/ARTICLES-EN-REDACTIONS/ARTICLE_MVOTO/Paper2_Sensors_ActuatorsB/docking_rerun/ligands/20778.pdb
REMARK  7 active torsions:
REMARK  status: ('A' for Active; 'I' for Inactive)
REMARK    1  A    between atoms: N2_2  and  N3_3
REMARK    2  A    between atoms: C2_6  and  N5_7
REMARK    3  A    between atoms: N5_7  and  C3_8
REMARK    4  A    between atoms: C3_8  and  C4_9
REMARK    5  A    between atoms: C3_8  and  C5_10
REMARK    6  A    between atoms: C6_12  and  S1_14
REMARK    7  A    between atoms: S1_14  and  C7_15
REMARK                            x       y       z     vdW  Elec       q    Type
REMARK                         _______ _______ _______ _____ _____    ______ ____
ROOT
ATOM      1  N3  UNL     1       2.115  26.354  30.336  0.00  0.00    -0.126 N 
ATOM      2  C1  UNL     1       3.098  26.417  31.372  0.00  0.00    +0.252 A 
ATOM      3  N4  UNL     1       3.748  27.585  31.615  0.00  0.00    -0.178 NA
ATOM      4  C2  UNL     1       4.684  27.657  32.595  0.00  0.00    +0.240 A 
ATOM      5  N6  UNL     1       4.966  26.554  33.335  0.00  0.00    -0.187 NA
ATOM      6  C6  UNL     1       4.318  25.387  33.098  0.00  0.00    +0.194 A 
ATOM      7  N7  UNL     1       3.384  25.318  32.117  0.00  0.00    -0.187 NA
ATOM      8  H1  UNL     1       1.900  27.204  29.768  0.00  0.00    +0.193 HD
ENDROOT
BRANCH   1  10
ATOM      9  N1  UNL     1       0.902  24.246  29.864  0.00  0.00    -0.017 NA
ATOM     10  N2  UNL     1       1.450  25.200  30.078  0.00  0.00    -0.126 NA
ENDBRANCH   1  10
BRANCH   6  11
ATOM     11  S1  UNL     1       4.693  23.940  34.081  0.00  0.00    -0.089 S 
ATOM     12  C7  UNL     1       4.466  22.795  32.686  0.00  0.00    +0.093 C 
ENDBRANCH   6  11
BRANCH   4  13
ATOM     13  N5  UNL     1       5.354  28.901  32.836  0.00  0.00    -0.213 NA
BRANCH  13  14
ATOM     14  C3  UNL     1       5.455  30.031  31.909  0.00  0.00    +0.091 C 
ATOM     15  C4  UNL     1       4.512  31.169  32.315  0.00  0.00    +0.029 C 
ATOM     16  C5  UNL     1       6.903  30.511  31.772  0.00  0.00    +0.029 C 
ENDBRANCH  13  14
ENDBRANCH   4  13
TORSDOF 4
ENDMDL
MODEL 7
REMARK minimizedAffinity -4.48521471
REMARK minimizedRMSD -1
REMARK  Name = /home/tchapet/Post-Doc/ARTICLES-DOSSIERS-DES-ARTICLES-EN-REDACTION/NOUVELS-AXES-DE-RECHERCHE-A-REGARDER-URGEMMENT/ARTICLES-EN-REDACTIONS/ARTICLE_MVOTO/Paper2_Sensors_ActuatorsB/docking_rerun/ligands/20778.pdb
REMARK  7 active torsions:
REMARK  status: ('A' for Active; 'I' for Inactive)
REMARK    1  A    between atoms: N2_2  and  N3_3
REMARK    2  A    between atoms: C2_6  and  N5_7
REMARK    3  A    between atoms: N5_7  and  C3_8
REMARK    4  A    between atoms: C3_8  and  C4_9
REMARK    5  A    between atoms: C3_8  and  C5_10
REMARK    6  A    between atoms: C6_12  and  S1_14
REMARK    7  A    between atoms: S1_14  and  C7_15
REMARK                            x       y       z     vdW  Elec       q    Type
REMARK                         _______ _______ _______ _____ _____    ______ ____
ROOT
ATOM      1  N3  UNL     1     -24.270   8.670  22.797  0.00  0.00    -0.126 N 
ATOM      2  C1  UNL     1     -24.793   9.554  23.791  0.00  0.00    +0.252 A 
ATOM      3  N4  UNL     1     -23.957  10.119  24.700  0.00  0.00    -0.178 NA
ATOM      4  C2  UNL     1     -24.442  10.959  25.648  0.00  0.00    +0.240 A 
ATOM      5  N6  UNL     1     -25.771  11.236  25.683  0.00  0.00    -0.187 NA
ATOM      6  C6  UNL     1     -26.610  10.677  24.777  0.00  0.00    +0.194 A 
ATOM      7  N7  UNL     1     -26.122   9.836  23.831  0.00  0.00    -0.187 NA
ATOM      8  H1  UNL     1     -23.248   8.459  22.773  0.00  0.00    +0.193 HD
ENDROOT
BRANCH   1  10
ATOM      9  N1  UNL     1     -25.760   7.623  21.117  0.00  0.00    -0.017 NA
ATOM     10  N2  UNL     1     -25.086   8.097  21.877  0.00  0.00    -0.126 NA
ENDBRANCH   1  10
BRANCH   6  11
ATOM     11  S1  UNL     1     -28.358  11.049  24.829  0.00  0.00    -0.089 S 
ATOM     12  C7  UNL     1     -28.728  10.058  23.349  0.00  0.00    +0.093 C 
ENDBRANCH   6  11
BRANCH   4  13
ATOM     13  N5  UNL     1     -23.538  11.547  26.594  0.00  0.00    -0.213 NA
BRANCH  13  14
ATOM     14  C3  UNL     1     -22.076  11.457  26.576  0.00  0.00    +0.091 C 
ATOM     15  C4  UNL     1     -21.432  12.836  26.749  0.00  0.00    +0.029 C 
ATOM     16  C5  UNL     1     -21.568  10.455  27.616  0.00  0.00    +0.029 C 
ENDBRANCH  13  14
ENDBRANCH   4  13
TORSDOF 4
ENDMDL
MODEL 8
REMARK minimizedAffinity -4.47179127
REMARK minimizedRMSD -1
REMARK  Name = /home/tchapet/Post-Doc/ARTICLES-DOSSIERS-DES-ARTICLES-EN-REDACTION/NOUVELS-AXES-DE-RECHERCHE-A-REGARDER-URGEMMENT/ARTICLES-EN-REDACTIONS/ARTICLE_MVOTO/Paper2_Sensors_ActuatorsB/docking_rerun/ligands/20778.pdb
REMARK  7 active torsions:
REMARK  status: ('A' for Active; 'I' for Inactive)
REMARK    1  A    between atoms: N2_2  and  N3_3
REMARK    2  A    between atoms: C2_6  and  N5_7
REMARK    3  A    between atoms: N5_7  and  C3_8
REMARK    4  A    between atoms: C3_8  and  C4_9
REMARK    5  A    between atoms: C3_8  and  C5_10
REMARK    6  A    between atoms: C6_12  and  S1_14
REMARK    7  A    between atoms: S1_14  and  C7_15
REMARK                            x       y       z     vdW  Elec       q    Type
REMARK                         _______ _______ _______ _____ _____    ______ ____
ROOT
ATOM      1  N3  UNL     1     -29.702  21.060  22.053  0.00  0.00    -0.126 N 
ATOM      2  C1  UNL     1     -30.923  20.705  21.401  0.00  0.00    +0.252 A 
ATOM      3  N4  UNL     1     -31.057  20.905  20.064  0.00  0.00    -0.178 NA
ATOM      4  C2  UNL     1     -32.212  20.572  19.434  0.00  0.00    +0.240 A 
ATOM      5  N6  UNL     1     -33.235  20.035  20.147  0.00  0.00    -0.187 NA
ATOM      6  C6  UNL     1     -33.105  19.830  21.481  0.00  0.00    +0.194 A 
ATOM      7  N7  UNL     1     -31.950  20.166  22.108  0.00  0.00    -0.187 NA
ATOM      8  H1  UNL     1     -28.918  21.474  21.502  0.00  0.00    +0.193 HD
ENDROOT
BRANCH   1  10
ATOM      9  N1  UNL     1     -29.414  20.707  24.488  0.00  0.00    -0.017 NA
ATOM     10  N2  UNL     1     -29.544  20.866  23.386  0.00  0.00    -0.126 NA
ENDBRANCH   1  10
BRANCH   6  11
ATOM     11  S1  UNL     1     -34.455  19.118  22.412  0.00  0.00    -0.089 S 
ATOM     12  C7  UNL     1     -33.683  17.474  22.491  0.00  0.00    +0.093 C 
ENDBRANCH   6  11
BRANCH   4  13
ATOM     13  N5  UNL     1     -32.328  20.789  18.021  0.00  0.00    -0.213 NA
BRANCH  13  14
ATOM     14  C3  UNL     1     -31.238  20.773  17.043  0.00  0.00    +0.091 C 
ATOM     15  C4  UNL     1     -30.958  19.351  16.546  0.00  0.00    +0.029 C 
ATOM     16  C5  UNL     1     -31.515  21.737  15.886  0.00  0.00    +0.029 C 
ENDBRANCH  13  14
ENDBRANCH   4  13
TORSDOF 4
ENDMDL
MODEL 9
REMARK minimizedAffinity -4.39484072
REMARK minimizedRMSD -1
REMARK  Name = /home/tchapet/Post-Doc/ARTICLES-DOSSIERS-DES-ARTICLES-EN-REDACTION/NOUVELS-AXES-DE-RECHERCHE-A-REGARDER-URGEMMENT/ARTICLES-EN-REDACTIONS/ARTICLE_MVOTO/Paper2_Sensors_ActuatorsB/docking_rerun/ligands/20778.pdb
REMARK  7 active torsions:
REMARK  status: ('A' for Active; 'I' for Inactive)
REMARK    1  A    between atoms: N2_2  and  N3_3
REMARK    2  A    between atoms: C2_6  and  N5_7
REMARK    3  A    between atoms: N5_7  and  C3_8
REMARK    4  A    between atoms: C3_8  and  C4_9
REMARK    5  A    between atoms: C3_8  and  C5_10
REMARK    6  A    between atoms: C6_12  and  S1_14
REMARK    7  A    between atoms: S1_14  and  C7_15
REMARK                            x       y       z     vdW  Elec       q    Type
REMARK                         _______ _______ _______ _____ _____    ______ ____
ROOT
ATOM      1  N3  UNL     1     -13.487  25.128  11.746  0.00  0.00    -0.126 N 
ATOM      2  C1  UNL     1     -13.308  23.872  11.089  0.00  0.00    +0.252 A 
ATOM      3  N4  UNL     1     -12.669  22.859  11.730  0.00  0.00    -0.178 NA
ATOM      4  C2  UNL     1     -12.492  21.662  11.116  0.00  0.00    +0.240 A 
ATOM      5  N6  UNL     1     -12.960  21.480   9.854  0.00  0.00    -0.187 NA
ATOM      6  C6  UNL     1     -13.601  22.487   9.211  0.00  0.00    +0.194 A 
ATOM      7  N7  UNL     1     -13.774  23.683   9.827  0.00  0.00    -0.187 NA
ATOM      8  H1  UNL     1     -13.125  25.265  12.716  0.00  0.00    +0.193 HD
ENDROOT
BRANCH   1  10
ATOM      9  N1  UNL     1     -14.651  26.998  10.615  0.00  0.00    -0.017 NA
ATOM     10  N2  UNL     1     -14.124  26.153  11.127  0.00  0.00    -0.126 NA
ENDBRANCH   1  10
BRANCH   6  11
ATOM     11  S1  UNL     1     -14.217  22.237   7.551  0.00  0.00    -0.089 S 
ATOM     12  C7  UNL     1     -15.257  23.729   7.591  0.00  0.00    +0.093 C 
ENDBRANCH   6  11
BRANCH   4  13
ATOM     13  N5  UNL     1     -11.819  20.607  11.815  0.00  0.00    -0.213 NA
BRANCH  13  14
ATOM     14  C3  UNL     1     -10.481  20.669  12.409  0.00  0.00    +0.091 C 
ATOM     15  C4  UNL     1     -10.232  19.480  13.343  0.00  0.00    +0.029 C 
ATOM     16  C5  UNL     1      -9.399  20.785  11.332  0.00  0.00    +0.029 C 
ENDBRANCH  13  14
ENDBRANCH   4  13
TORSDOF 4
ENDMDL
