MODEL 1
REMARK minimizedAffinity -4.24292564
REMARK minimizedRMSD -1
REMARK  Name = /home/tchapet/Post-Doc/ARTICLES-DOSSIERS-DES-ARTICLES-EN-REDACTION/NOUVELS-AXES-DE-RECHERCHE-A-REGARDER-URGEMMENT/ARTICLES-EN-REDACTIONS/ARTICLE_MVOTO/Paper2_Sensors_ActuatorsB/docking_rerun/ligands/20778.pdb
REMARK  7 active torsions:
REMARK  status: ('A' for Active; 'I' for Inactive)
REMARK    1  A    between atoms: N2_2  and  N3_3
REMARK    2  A    between atoms: C2_6  and  N5_7
REMARK    3  A    between atoms: N5_7  and  C3_8
REMARK    4  A    between atoms: C3_8  and  C4_9
REMARK    5  A    between atoms: C3_8  and  C5_10
REMARK    6  A    between atoms: C6_12  and  S1_14
REMARK    7  A    between atoms: S1_14  and  C7_15
REMARK                            x       y       z     vdW  Elec       q    Type
REMARK                         _______ _______ _______ _____ _____    ______ ____
ROOT
ATOM      1  N3  UNL     1      11.190  23.821  22.445  0.00  0.00    -0.126 N 
ATOM      2  C1  UNL     1      12.594  24.065  22.344  0.00  0.00    +0.252 A 
ATOM      3  N4  UNL     1      13.427  23.066  21.953  0.00  0.00    -0.178 NA
ATOM      4  C2  UNL     1      14.763  23.286  21.854  0.00  0.00    +0.240 A 
ATOM      5  N6  UNL     1      15.264  24.513  22.146  0.00  0.00    -0.187 NA
ATOM      6  C6  UNL     1      14.437  25.515  22.534  0.00  0.00    +0.194 A 
ATOM      7  N7  UNL     1      13.103  25.291  22.634  0.00  0.00    -0.187 NA
ATOM      8  H1  UNL     1      10.808  22.875  22.220  0.00  0.00    +0.193 HD
ENDROOT
BRANCH   1  10
ATOM      9  N1  UNL     1       9.637  25.618  23.148  0.00  0.00    -0.017 NA
ATOM     10  N2  UNL     1      10.339  24.804  22.830  0.00  0.00    -0.126 NA
ENDBRANCH   1  10
BRANCH   6  11
ATOM     11  S1  UNL     1      15.105  27.129  22.914  0.00  0.00    -0.089 S 
ATOM     12  C7  UNL     1      14.199  27.946  21.564  0.00  0.00    +0.093 C 
ENDBRANCH   6  11
BRANCH   4  13
ATOM     13  N5  UNL     1      15.621  22.216  21.436  0.00  0.00    -0.213 NA
BRANCH  13  14
ATOM     14  C3  UNL     1      16.463  21.384  22.299  0.00  0.00    +0.091 C 
ATOM     15  C4  UNL     1      15.618  20.433  23.151  0.00  0.00    +0.029 C 
ATOM     16  C5  UNL     1      17.522  20.634  21.485  0.00  0.00    +0.029 C 
ENDBRANCH  13  14
ENDBRANCH   4  13
TORSDOF 4
ENDMDL
MODEL 2
REMARK minimizedAffinity -4.15143299
REMARK minimizedRMSD -1
REMARK  Name = /home/tchapet/Post-Doc/ARTICLES-DOSSIERS-DES-ARTICLES-EN-REDACTION/NOUVELS-AXES-DE-RECHERCHE-A-REGARDER-URGEMMENT/ARTICLES-EN-REDACTIONS/ARTICLE_MVOTO/Paper2_Sensors_ActuatorsB/docking_rerun/ligands/20778.pdb
REMARK  7 active torsions:
REMARK  status: ('A' for Active; 'I' for Inactive)
REMARK    1  A    between atoms: N2_2  and  N3_3
REMARK    2  A    between atoms: C2_6  and  N5_7
REMARK    3  A    between atoms: N5_7  and  C3_8
REMARK    4  A    between atoms: C3_8  and  C4_9
REMARK    5  A    between atoms: C3_8  and  C5_10
REMARK    6  A    between atoms: C6_12  and  S1_14
REMARK    7  A    between atoms: S1_14  and  C7_15
REMARK                            x       y       z     vdW  Elec       q    Type
REMARK                         _______ _______ _______ _____ _____    ______ ____
ROOT
ATOM      1  N3  UNL     1      14.870   7.813  13.917  0.00  0.00    -0.126 N 
ATOM      2  C1  UNL     1      15.487   6.673  13.315  0.00  0.00    +0.252 A 
ATOM      3  N4  UNL     1      15.154   6.315  12.048  0.00  0.00    -0.178 NA
ATOM      4  C2  UNL     1      15.733   5.235  11.466  0.00  0.00    +0.240 A 
ATOM      5  N6  UNL     1      16.652   4.513  12.157  0.00  0.00    -0.187 NA
ATOM      6  C6  UNL     1      16.990   4.867  13.421  0.00  0.00    +0.194 A 
ATOM      7  N7  UNL     1      16.408   5.947  14.001  0.00  0.00    -0.187 NA
ATOM      8  H1  UNL     1      14.163   8.366  13.383  0.00  0.00    +0.193 HD
ENDROOT
BRANCH   1  10
ATOM      9  N1  UNL     1      15.454   8.503  16.223  0.00  0.00    -0.017 NA
ATOM     10  N2  UNL     1      15.190   8.191  15.180  0.00  0.00    -0.126 NA
ENDBRANCH   1  10
BRANCH   6  11
ATOM     11  S1  UNL     1      18.204   3.912  14.323  0.00  0.00    -0.089 S 
ATOM     12  C7  UNL     1      17.814   2.371  13.438  0.00  0.00    +0.093 C 
ENDBRANCH   6  11
BRANCH   4  13
ATOM     13  N5  UNL     1      15.368   4.880  10.126  0.00  0.00    -0.213 NA
BRANCH  13  14
ATOM     14  C3  UNL     1      15.446   3.546   9.524  0.00  0.00    +0.091 C 
ATOM     15  C4  UNL     1      14.215   3.253   8.660  0.00  0.00    +0.029 C 
ATOM     16  C5  UNL     1      16.750   3.365   8.741  0.00  0.00    +0.029 C 
ENDBRANCH  13  14
ENDBRANCH   4  13
TORSDOF 4
ENDMDL
MODEL 3
REMARK minimizedAffinity -4.01169729
REMARK minimizedRMSD -1
REMARK  Name = /home/tchapet/Post-Doc/ARTICLES-DOSSIERS-DES-ARTICLES-EN-REDACTION/NOUVELS-AXES-DE-RECHERCHE-A-REGARDER-URGEMMENT/ARTICLES-EN-REDACTIONS/ARTICLE_MVOTO/Paper2_Sensors_ActuatorsB/docking_rerun/ligands/20778.pdb
REMARK  7 active torsions:
REMARK  status: ('A' for Active; 'I' for Inactive)
REMARK    1  A    between atoms: N2_2  and  N3_3
REMARK    2  A    between atoms: C2_6  and  N5_7
REMARK    3  A    between atoms: N5_7  and  C3_8
REMARK    4  A    between atoms: C3_8  and  C4_9
REMARK    5  A    between atoms: C3_8  and  C5_10
REMARK    6  A    between atoms: C6_12  and  S1_14
REMARK    7  A    between atoms: S1_14  and  C7_15
REMARK                            x       y       z     vdW  Elec       q    Type
REMARK                         _______ _______ _______ _____ _____    ______ ____
ROOT
ATOM      1  N3  UNL     1     -28.378 -11.768   2.791  0.00  0.00    -0.126 N 
ATOM      2  C1  UNL     1     -28.575 -11.255   1.472  0.00  0.00    +0.252 A 
ATOM      3  N4  UNL     1     -28.597 -12.104   0.413  0.00  0.00    -0.178 NA
ATOM      4  C2  UNL     1     -28.783 -11.628  -0.844  0.00  0.00    +0.240 A 
ATOM      5  N6  UNL     1     -28.949 -10.295  -1.038  0.00  0.00    -0.187 NA
ATOM      6  C6  UNL     1     -28.930  -9.442   0.016  0.00  0.00    +0.194 A 
ATOM      7  N7  UNL     1     -28.743  -9.922   1.271  0.00  0.00    -0.187 NA
ATOM      8  H1  UNL     1     -28.250 -12.794   2.937  0.00  0.00    +0.193 HD
ENDROOT
BRANCH   1  10
ATOM      9  N1  UNL     1     -28.338 -10.254   4.751  0.00  0.00    -0.017 NA
ATOM     10  N2  UNL     1     -28.355 -10.939   3.865  0.00  0.00    -0.126 NA
ENDBRANCH   1  10
BRANCH   6  11
ATOM     11  S1  UNL     1     -29.154  -7.688  -0.249  0.00  0.00    -0.089 S 
ATOM     12  C7  UNL     1     -28.933  -7.280   1.510  0.00  0.00    +0.093 C 
ENDBRANCH   6  11
BRANCH   4  13
ATOM     13  N5  UNL     1     -28.806 -12.545  -1.946  0.00  0.00    -0.213 NA
BRANCH  13  14
ATOM     14  C3  UNL     1     -28.915 -14.004  -1.865  0.00  0.00    +0.091 C 
ATOM     15  C4  UNL     1     -30.378 -14.447  -1.762  0.00  0.00    +0.029 C 
ATOM     16  C5  UNL     1     -28.194 -14.681  -3.034  0.00  0.00    +0.029 C 
ENDBRANCH  13  14
ENDBRANCH   4  13
TORSDOF 4
ENDMDL
MODEL 4
REMARK minimizedAffinity -3.92447972
REMARK minimizedRMSD -1
REMARK  Name = /home/tchapet/Post-Doc/ARTICLES-DOSSIERS-DES-ARTICLES-EN-REDACTION/NOUVELS-AXES-DE-RECHERCHE-A-REGARDER-URGEMMENT/ARTICLES-EN-REDACTIONS/ARTICLE_MVOTO/Paper2_Sensors_ActuatorsB/docking_rerun/ligands/20778.pdb
REMARK  7 active torsions:
REMARK  status: ('A' for Active; 'I' for Inactive)
REMARK    1  A    between atoms: N2_2  and  N3_3
REMARK    2  A    between atoms: C2_6  and  N5_7
REMARK    3  A    between atoms: N5_7  and  C3_8
REMARK    4  A    between atoms: C3_8  and  C4_9
REMARK    5  A    between atoms: C3_8  and  C5_10
REMARK    6  A    between atoms: C6_12  and  S1_14
REMARK    7  A    between atoms: S1_14  and  C7_15
REMARK                            x       y       z     vdW  Elec       q    Type
REMARK                         _______ _______ _______ _____ _____    ______ ____
ROOT
ATOM      1  N3  UNL     1     -18.346 -24.158  -8.839  0.00  0.00    -0.126 N 
ATOM      2  C1  UNL     1     -19.718 -24.422  -8.537  0.00  0.00    +0.252 A 
ATOM      3  N4  UNL     1     -20.525 -23.410  -8.125  0.00  0.00    -0.178 NA
ATOM      4  C2  UNL     1     -21.829 -23.649  -7.835  0.00  0.00    +0.240 A 
ATOM      5  N6  UNL     1     -22.325 -24.907  -7.961  0.00  0.00    -0.187 NA
ATOM      6  C6  UNL     1     -21.524 -25.919  -8.374  0.00  0.00    +0.194 A 
ATOM      7  N7  UNL     1     -20.221 -25.678  -8.661  0.00  0.00    -0.187 NA
ATOM      8  H1  UNL     1     -17.967 -23.190  -8.740  0.00  0.00    +0.193 HD
ENDROOT
BRANCH   1  10
ATOM      9  N1  UNL     1     -16.842 -25.974  -9.598  0.00  0.00    -0.017 NA
ATOM     10  N2  UNL     1     -17.522 -25.152  -9.255  0.00  0.00    -0.126 NA
ENDBRANCH   1  10
BRANCH   6  11
ATOM     11  S1  UNL     1     -22.187 -27.572  -8.541  0.00  0.00    -0.089 S 
ATOM     12  C7  UNL     1     -20.952 -28.302  -7.422  0.00  0.00    +0.093 C 
ENDBRANCH   6  11
BRANCH   4  13
ATOM     13  N5  UNL     1     -22.662 -22.564  -7.406  0.00  0.00    -0.213 NA
BRANCH  13  14
ATOM     14  C3  UNL     1     -22.229 -21.198  -7.101  0.00  0.00    +0.091 C 
ATOM     15  C4  UNL     1     -23.282 -20.172  -7.530  0.00  0.00    +0.029 C 
ATOM     16  C5  UNL     1     -21.857 -21.050  -5.623  0.00  0.00    +0.029 C 
ENDBRANCH  13  14
ENDBRANCH   4  13
TORSDOF 4
ENDMDL
MODEL 5
REMARK minimizedAffinity -3.82334113
REMARK minimizedRMSD -1
REMARK  Name = /home/tchapet/Post-Doc/ARTICLES-DOSSIERS-DES-ARTICLES-EN-REDACTION/NOUVELS-AXES-DE-RECHERCHE-A-REGARDER-URGEMMENT/ARTICLES-EN-REDACTIONS/ARTICLE_MVOTO/Paper2_Sensors_ActuatorsB/docking_rerun/ligands/20778.pdb
REMARK  7 active torsions:
REMARK  status: ('A' for Active; 'I' for Inactive)
REMARK    1  A    between atoms: N2_2  and  N3_3
REMARK    2  A    between atoms: C2_6  and  N5_7
REMARK    3  A    between atoms: N5_7  and  C3_8
REMARK    4  A    between atoms: C3_8  and  C4_9
REMARK    5  A    between atoms: C3_8  and  C5_10
REMARK    6  A    between atoms: C6_12  and  S1_14
REMARK    7  A    between atoms: S1_14  and  C7_15
REMARK                            x       y       z     vdW  Elec       q    Type
REMARK                         _______ _______ _______ _____ _____    ______ ____
ROOT
ATOM      1  N3  UNL     1     -21.886 -26.767  -7.770  0.00  0.00    -0.126 N 
ATOM      2  C1  UNL     1     -21.370 -25.466  -8.057  0.00  0.00    +0.252 A 
ATOM      3  N4  UNL     1     -22.136 -24.369  -7.827  0.00  0.00    -0.178 NA
ATOM      4  C2  UNL     1     -21.657 -23.129  -8.096  0.00  0.00    +0.240 A 
ATOM      5  N6  UNL     1     -20.403 -22.988  -8.598  0.00  0.00    -0.187 NA
ATOM      6  C6  UNL     1     -19.632 -24.080  -8.828  0.00  0.00    +0.194 A 
ATOM      7  N7  UNL     1     -20.115 -25.319  -8.558  0.00  0.00    -0.187 NA
ATOM      8  H1  UNL     1     -22.851 -26.871  -7.385  0.00  0.00    +0.193 HD
ENDROOT
BRANCH   1  10
ATOM      9  N1  UNL     1     -20.519 -28.793  -8.172  0.00  0.00    -0.017 NA
ATOM     10  N2  UNL     1     -21.137 -27.877  -7.990  0.00  0.00    -0.126 NA
ENDBRANCH   1  10
BRANCH   6  11
ATOM     11  S1  UNL     1     -17.980 -23.886  -9.484  0.00  0.00    -0.089 S 
ATOM     12  C7  UNL     1     -18.362 -22.296 -10.282  0.00  0.00    +0.093 C 
ENDBRANCH   6  11
BRANCH   4  13
ATOM     13  N5  UNL     1     -22.483 -21.985  -7.840  0.00  0.00    -0.213 NA
BRANCH  13  14
ATOM     14  C3  UNL     1     -22.990 -21.549  -6.536  0.00  0.00    +0.091 C 
ATOM     15  C4  UNL     1     -21.857 -21.027  -5.646  0.00  0.00    +0.029 C 
ATOM     16  C5  UNL     1     -24.114 -20.521  -6.692  0.00  0.00    +0.029 C 
ENDBRANCH  13  14
ENDBRANCH   4  13
TORSDOF 4
ENDMDL
MODEL 6
REMARK minimizedAffinity -3.76981592
REMARK minimizedRMSD -1
REMARK  Name = /home/tchapet/Post-Doc/ARTICLES-DOSSIERS-DES-ARTICLES-EN-REDACTION/NOUVELS-AXES-DE-RECHERCHE-A-REGARDER-URGEMMENT/ARTICLES-EN-REDACTIONS/ARTICLE_MVOTO/Paper2_Sensors_ActuatorsB/docking_rerun/ligands/20778.pdb
REMARK  7 active torsions:
REMARK  status: ('A' for Active; 'I' for Inactive)
REMARK    1  A    between atoms: N2_2  and  N3_3
REMARK    2  A    between atoms: C2_6  and  N5_7
REMARK    3  A    between atoms: N5_7  and  C3_8
REMARK    4  A    between atoms: C3_8  and  C4_9
REMARK    5  A    between atoms: C3_8  and  C5_10
REMARK    6  A    between atoms: C6_12  and  S1_14
REMARK    7  A    between atoms: S1_14  and  C7_15
REMARK                            x       y       z     vdW  Elec       q    Type
REMARK                         _______ _______ _______ _____ _____    ______ ____
ROOT
ATOM      1  N3  UNL     1       6.100  29.128  26.082  0.00  0.00    -0.126 N 
ATOM      2  C1  UNL     1       7.340  28.592  26.548  0.00  0.00    +0.252 A 
ATOM      3  N4  UNL     1       8.367  28.413  25.678  0.00  0.00    -0.178 NA
ATOM      4  C2  UNL     1       9.549  27.905  26.108  0.00  0.00    +0.240 A 
ATOM      5  N6  UNL     1       9.702  27.576  27.417  0.00  0.00    -0.187 NA
ATOM      6  C6  UNL     1       8.680  27.755  28.290  0.00  0.00    +0.194 A 
ATOM      7  N7  UNL     1       7.499  28.262  27.856  0.00  0.00    -0.187 NA
ATOM      8  H1  UNL     1       5.986  29.379  25.075  0.00  0.00    +0.193 HD
ENDROOT
BRANCH   1  10
ATOM      9  N1  UNL     1       4.202  29.475  27.636  0.00  0.00    -0.017 NA
ATOM     10  N2  UNL     1       5.061  29.318  26.933  0.00  0.00    -0.126 NA
ENDBRANCH   1  10
BRANCH   6  11
ATOM     11  S1  UNL     1       8.890  27.323  30.013  0.00  0.00    -0.089 S 
ATOM     12  C7  UNL     1       7.118  27.484  30.387  0.00  0.00    +0.093 C 
ENDBRANCH   6  11
BRANCH   4  13
ATOM     13  N5  UNL     1      10.621  27.729  25.172  0.00  0.00    -0.213 NA
BRANCH  13  14
ATOM     14  C3  UNL     1      10.496  27.330  23.768  0.00  0.00    +0.091 C 
ATOM     15  C4  UNL     1      11.839  27.436  23.038  0.00  0.00    +0.029 C 
ATOM     16  C5  UNL     1       9.885  25.931  23.640  0.00  0.00    +0.029 C 
ENDBRANCH  13  14
ENDBRANCH   4  13
TORSDOF 4
ENDMDL
MODEL 7
REMARK minimizedAffinity -3.76189184
REMARK minimizedRMSD -1
REMARK  Name = /home/tchapet/Post-Doc/ARTICLES-DOSSIERS-DES-ARTICLES-EN-REDACTION/NOUVELS-AXES-DE-RECHERCHE-A-REGARDER-URGEMMENT/ARTICLES-EN-REDACTIONS/ARTICLE_MVOTO/Paper2_Sensors_ActuatorsB/docking_rerun/ligands/20778.pdb
REMARK  7 active torsions:
REMARK  status: ('A' for Active; 'I' for Inactive)
REMARK    1  A    between atoms: N2_2  and  N3_3
REMARK    2  A    between atoms: C2_6  and  N5_7
REMARK    3  A    between atoms: N5_7  and  C3_8
REMARK    4  A    between atoms: C3_8  and  C4_9
REMARK    5  A    between atoms: C3_8  and  C5_10
REMARK    6  A    between atoms: C6_12  and  S1_14
REMARK    7  A    between atoms: S1_14  and  C7_15
REMARK                            x       y       z     vdW  Elec       q    Type
REMARK                         _______ _______ _______ _____ _____    ______ ____
ROOT
ATOM      1  N3  UNL     1     -23.639 -28.548   4.929  0.00  0.00    -0.126 N 
ATOM      2  C1  UNL     1     -22.375 -29.212   4.857  0.00  0.00    +0.252 A 
ATOM      3  N4  UNL     1     -21.617 -29.101   3.735  0.00  0.00    -0.178 NA
ATOM      4  C2  UNL     1     -20.416 -29.727   3.655  0.00  0.00    +0.240 A 
ATOM      5  N6  UNL     1     -19.973 -30.466   4.704  0.00  0.00    -0.187 NA
ATOM      6  C6  UNL     1     -20.725 -30.579   5.827  0.00  0.00    +0.194 A 
ATOM      7  N7  UNL     1     -21.926 -29.953   5.904  0.00  0.00    -0.187 NA
ATOM      8  H1  UNL     1     -23.977 -27.981   4.120  0.00  0.00    +0.193 HD
ENDROOT
BRANCH   1  10
ATOM      9  N1  UNL     1     -25.049 -28.722   6.958  0.00  0.00    -0.017 NA
ATOM     10  N2  UNL     1     -24.411 -28.643   6.041  0.00  0.00    -0.126 NA
ENDBRANCH   1  10
BRANCH   6  11
ATOM     11  S1  UNL     1     -20.132 -31.551   7.206  0.00  0.00    -0.089 S 
ATOM     12  C7  UNL     1     -18.602 -32.038   6.351  0.00  0.00    +0.093 C 
ENDBRANCH   6  11
BRANCH   4  13
ATOM     13  N5  UNL     1     -19.632 -29.591   2.462  0.00  0.00    -0.213 NA
BRANCH  13  14
ATOM     14  C3  UNL     1     -18.821 -30.633   1.827  0.00  0.00    +0.091 C 
ATOM     15  C4  UNL     1     -19.668 -31.862   1.480  0.00  0.00    +0.029 C 
ATOM     16  C5  UNL     1     -18.077 -30.089   0.604  0.00  0.00    +0.029 C 
ENDBRANCH  13  14
ENDBRANCH   4  13
TORSDOF 4
ENDMDL
MODEL 8
REMARK minimizedAffinity -3.70398545
REMARK minimizedRMSD -1
REMARK  Name = /home/tchapet/Post-Doc/ARTICLES-DOSSIERS-DES-ARTICLES-EN-REDACTION/NOUVELS-AXES-DE-RECHERCHE-A-REGARDER-URGEMMENT/ARTICLES-EN-REDACTIONS/ARTICLE_MVOTO/Paper2_Sensors_ActuatorsB/docking_rerun/ligands/20778.pdb
REMARK  7 active torsions:
REMARK  status: ('A' for Active; 'I' for Inactive)
REMARK    1  A    between atoms: N2_2  and  N3_3
REMARK    2  A    between atoms: C2_6  and  N5_7
REMARK    3  A    between atoms: N5_7  and  C3_8
REMARK    4  A    between atoms: C3_8  and  C4_9
REMARK    5  A    between atoms: C3_8  and  C5_10
REMARK    6  A    between atoms: C6_12  and  S1_14
REMARK    7  A    between atoms: S1_14  and  C7_15
REMARK                            x       y       z     vdW  Elec       q    Type
REMARK                         _______ _______ _______ _____ _____    ______ ____
ROOT
ATOM      1  N3  UNL     1     -21.839 -30.004   7.072  0.00  0.00    -0.126 N 
ATOM      2  C1  UNL     1     -22.197 -29.854   5.697  0.00  0.00    +0.252 A 
ATOM      3  N4  UNL     1     -21.329 -29.267   4.833  0.00  0.00    -0.178 NA
ATOM      4  C2  UNL     1     -21.658 -29.119   3.525  0.00  0.00    +0.240 A 
ATOM      5  N6  UNL     1     -22.862 -29.564   3.082  0.00  0.00    -0.187 NA
ATOM      6  C6  UNL     1     -23.732 -30.152   3.939  0.00  0.00    +0.194 A 
ATOM      7  N7  UNL     1     -23.400 -30.297   5.247  0.00  0.00    -0.187 NA
ATOM      8  H1  UNL     1     -20.913 -29.660   7.410  0.00  0.00    +0.193 HD
ENDROOT
BRANCH   1  10
ATOM      9  N1  UNL     1     -23.391 -31.073   8.679  0.00  0.00    -0.017 NA
ATOM     10  N2  UNL     1     -22.689 -30.589   7.952  0.00  0.00    -0.126 NA
ENDBRANCH   1  10
BRANCH   6  11
ATOM     11  S1  UNL     1     -25.314 -30.738   3.346  0.00  0.00    -0.089 S 
ATOM     12  C7  UNL     1     -24.568 -31.956   2.220  0.00  0.00    +0.093 C 
ENDBRANCH   6  11
BRANCH   4  13
ATOM     13  N5  UNL     1     -20.723 -28.501   2.631  0.00  0.00    -0.213 NA
BRANCH  13  14
ATOM     14  C3  UNL     1     -19.475 -29.084   2.133  0.00  0.00    +0.091 C 
ATOM     15  C4  UNL     1     -18.290 -28.712   3.030  0.00  0.00    +0.029 C 
ATOM     16  C5  UNL     1     -19.602 -30.600   1.955  0.00  0.00    +0.029 C 
ENDBRANCH  13  14
ENDBRANCH   4  13
TORSDOF 4
ENDMDL
MODEL 9
REMARK minimizedAffinity -3.67948771
REMARK minimizedRMSD -1
REMARK  Name = /home/tchapet/Post-Doc/ARTICLES-DOSSIERS-DES-ARTICLES-EN-REDACTION/NOUVELS-AXES-DE-RECHERCHE-A-REGARDER-URGEMMENT/ARTICLES-EN-REDACTIONS/ARTICLE_MVOTO/Paper2_Sensors_ActuatorsB/docking_rerun/ligands/20778.pdb
REMARK  7 active torsions:
REMARK  status: ('A' for Active; 'I' for Inactive)
REMARK    1  A    between atoms: N2_2  and  N3_3
REMARK    2  A    between atoms: C2_6  and  N5_7
REMARK    3  A    between atoms: N5_7  and  C3_8
REMARK    4  A    between atoms: C3_8  and  C4_9
REMARK    5  A    between atoms: C3_8  and  C5_10
REMARK    6  A    between atoms: C6_12  and  S1_14
REMARK    7  A    between atoms: S1_14  and  C7_15
REMARK                            x       y       z     vdW  Elec       q    Type
REMARK                         _______ _______ _______ _____ _____    ______ ____
ROOT
ATOM      1  N3  UNL     1     -19.772 -28.183   2.279  0.00  0.00    -0.126 N 
ATOM      2  C1  UNL     1     -18.980 -29.356   2.481  0.00  0.00    +0.252 A 
ATOM      3  N4  UNL     1     -18.042 -29.703   1.563  0.00  0.00    -0.178 NA
ATOM      4  C2  UNL     1     -17.284 -30.815   1.743  0.00  0.00    +0.240 A 
ATOM      5  N6  UNL     1     -17.468 -31.579   2.850  0.00  0.00    -0.187 NA
ATOM      6  C6  UNL     1     -18.402 -31.236   3.771  0.00  0.00    +0.194 A 
ATOM      7  N7  UNL     1     -19.159 -30.125   3.587  0.00  0.00    -0.187 NA
ATOM      8  H1  UNL     1     -19.628 -27.598   1.427  0.00  0.00    +0.193 HD
ENDROOT
BRANCH   1  10
ATOM      9  N1  UNL     1     -21.490 -27.512   3.932  0.00  0.00    -0.017 NA
ATOM     10  N2  UNL     1     -20.713 -27.816   3.184  0.00  0.00    -0.126 NA
ENDBRANCH   1  10
BRANCH   6  11
ATOM     11  S1  UNL     1     -18.635 -32.247   5.228  0.00  0.00    -0.089 S 
ATOM     12  C7  UNL     1     -19.939 -31.173   5.902  0.00  0.00    +0.093 C 
ENDBRANCH   6  11
BRANCH   4  13
ATOM     13  N5  UNL     1     -16.297 -31.158   0.762  0.00  0.00    -0.213 NA
BRANCH  13  14
ATOM     14  C3  UNL     1     -16.337 -32.301  -0.154  0.00  0.00    +0.091 C 
ATOM     15  C4  UNL     1     -17.571 -32.243  -1.060  0.00  0.00    +0.029 C 
ATOM     16  C5  UNL     1     -15.040 -32.412  -0.961  0.00  0.00    +0.029 C 
ENDBRANCH  13  14
ENDBRANCH   4  13
TORSDOF 4
ENDMDL
