MODEL 1
REMARK minimizedAffinity -4.2019639
REMARK minimizedRMSD -1
REMARK  Name = /home/tchapet/Post-Doc/ARTICLES-DOSSIERS-DES-ARTICLES-EN-REDACTION/NOUVELS-AXES-DE-RECHERCHE-A-REGARDER-URGEMMENT/ARTICLES-EN-REDACTIONS/ARTICLE_MVOTO/Paper2_Sensors_ActuatorsB/docking_rerun/ligands/20778.pdb
REMARK  7 active torsions:
REMARK  status: ('A' for Active; 'I' for Inactive)
REMARK    1  A    between atoms: N2_2  and  N3_3
REMARK    2  A    between atoms: C2_6  and  N5_7
REMARK    3  A    between atoms: N5_7  and  C3_8
REMARK    4  A    between atoms: C3_8  and  C4_9
REMARK    5  A    between atoms: C3_8  and  C5_10
REMARK    6  A    between atoms: C6_12  and  S1_14
REMARK    7  A    between atoms: S1_14  and  C7_15
REMARK                            x       y       z     vdW  Elec       q    Type
REMARK                         _______ _______ _______ _____ _____    ______ ____
ROOT
ATOM      1  N3  UNL     1     -18.816 -21.865 -10.257  0.00  0.00    -0.126 N 
ATOM      2  C1  UNL     1     -19.619 -22.698  -9.418  0.00  0.00    +0.252 A 
ATOM      3  N4  UNL     1     -20.683 -22.168  -8.761  0.00  0.00    -0.178 NA
ATOM      4  C2  UNL     1     -21.452 -22.949  -7.960  0.00  0.00    +0.240 A 
ATOM      5  N6  UNL     1     -21.153 -24.266  -7.820  0.00  0.00    -0.187 NA
ATOM      6  C6  UNL     1     -20.093 -24.800  -8.476  0.00  0.00    +0.194 A 
ATOM      7  N7  UNL     1     -19.326 -24.017  -9.274  0.00  0.00    -0.187 NA
ATOM      8  H1  UNL     1     -19.048 -20.853 -10.362  0.00  0.00    +0.193 HD
ENDROOT
BRANCH   1  10
ATOM      9  N1  UNL     1     -16.870 -22.792 -11.478  0.00  0.00    -0.017 NA
ATOM     10  N2  UNL     1     -17.750 -22.373 -10.925  0.00  0.00    -0.126 NA
ENDBRANCH   1  10
BRANCH   6  11
ATOM     11  S1  UNL     1     -19.710 -26.537  -8.289  0.00  0.00    -0.089 S 
ATOM     12  C7  UNL     1     -21.454 -27.019  -8.112  0.00  0.00    +0.093 C 
ENDBRANCH   6  11
BRANCH   4  13
ATOM     13  N5  UNL     1     -22.572 -22.367  -7.281  0.00  0.00    -0.213 NA
BRANCH  13  14
ATOM     14  C3  UNL     1     -22.668 -20.999  -6.766  0.00  0.00    +0.091 C 
ATOM     15  C4  UNL     1     -24.128 -20.561  -6.618  0.00  0.00    +0.029 C 
ATOM     16  C5  UNL     1     -21.888 -20.842  -5.457  0.00  0.00    +0.029 C 
ENDBRANCH  13  14
ENDBRANCH   4  13
TORSDOF 4
ENDMDL
MODEL 2
REMARK minimizedAffinity -4.1561656
REMARK minimizedRMSD -1
REMARK  Name = /home/tchapet/Post-Doc/ARTICLES-DOSSIERS-DES-ARTICLES-EN-REDACTION/NOUVELS-AXES-DE-RECHERCHE-A-REGARDER-URGEMMENT/ARTICLES-EN-REDACTIONS/ARTICLE_MVOTO/Paper2_Sensors_ActuatorsB/docking_rerun/ligands/20778.pdb
REMARK  7 active torsions:
REMARK  status: ('A' for Active; 'I' for Inactive)
REMARK    1  A    between atoms: N2_2  and  N3_3
REMARK    2  A    between atoms: C2_6  and  N5_7
REMARK    3  A    between atoms: N5_7  and  C3_8
REMARK    4  A    between atoms: C3_8  and  C4_9
REMARK    5  A    between atoms: C3_8  and  C5_10
REMARK    6  A    between atoms: C6_12  and  S1_14
REMARK    7  A    between atoms: S1_14  and  C7_15
REMARK                            x       y       z     vdW  Elec       q    Type
REMARK                         _______ _______ _______ _____ _____    ______ ____
ROOT
ATOM      1  N3  UNL     1      14.802   7.842  14.102  0.00  0.00    -0.126 N 
ATOM      2  C1  UNL     1      15.570   6.905  13.343  0.00  0.00    +0.252 A 
ATOM      3  N4  UNL     1      15.123   6.492  12.129  0.00  0.00    -0.178 NA
ATOM      4  C2  UNL     1      15.844   5.603  11.400  0.00  0.00    +0.240 A 
ATOM      5  N6  UNL     1      17.017   5.128  11.890  0.00  0.00    -0.187 NA
ATOM      6  C6  UNL     1      17.469   5.539  13.100  0.00  0.00    +0.194 A 
ATOM      7  N7  UNL     1      16.746   6.427  13.827  0.00  0.00    -0.187 NA
ATOM      8  H1  UNL     1      13.900   8.205  13.722  0.00  0.00    +0.193 HD
ENDROOT
BRANCH   1  10
ATOM      9  N1  UNL     1      15.584   8.625  16.318  0.00  0.00    -0.017 NA
ATOM     10  N2  UNL     1      15.231   8.271  15.315  0.00  0.00    -0.126 NA
ENDBRANCH   1  10
BRANCH   6  11
ATOM     11  S1  UNL     1      19.018   4.911  13.736  0.00  0.00    -0.089 S 
ATOM     12  C7  UNL     1      18.588   5.280  15.465  0.00  0.00    +0.093 C 
ENDBRANCH   6  11
BRANCH   4  13
ATOM     13  N5  UNL     1      15.353   5.185  10.119  0.00  0.00    -0.213 NA
BRANCH  13  14
ATOM     14  C3  UNL     1      15.342   3.817   9.592  0.00  0.00    +0.091 C 
ATOM     15  C4  UNL     1      15.024   2.800  10.693  0.00  0.00    +0.029 C 
ATOM     16  C5  UNL     1      14.388   3.688   8.401  0.00  0.00    +0.029 C 
ENDBRANCH  13  14
ENDBRANCH   4  13
TORSDOF 4
ENDMDL
MODEL 3
REMARK minimizedAffinity -4.15386677
REMARK minimizedRMSD -1
REMARK  Name = /home/tchapet/Post-Doc/ARTICLES-DOSSIERS-DES-ARTICLES-EN-REDACTION/NOUVELS-AXES-DE-RECHERCHE-A-REGARDER-URGEMMENT/ARTICLES-EN-REDACTIONS/ARTICLE_MVOTO/Paper2_Sensors_ActuatorsB/docking_rerun/ligands/20778.pdb
REMARK  7 active torsions:
REMARK  status: ('A' for Active; 'I' for Inactive)
REMARK    1  A    between atoms: N2_2  and  N3_3
REMARK    2  A    between atoms: C2_6  and  N5_7
REMARK    3  A    between atoms: N5_7  and  C3_8
REMARK    4  A    between atoms: C3_8  and  C4_9
REMARK    5  A    between atoms: C3_8  and  C5_10
REMARK    6  A    between atoms: C6_12  and  S1_14
REMARK    7  A    between atoms: S1_14  and  C7_15
REMARK                            x       y       z     vdW  Elec       q    Type
REMARK                         _______ _______ _______ _____ _____    ______ ____
ROOT
ATOM      1  N3  UNL     1      11.189  23.852  22.398  0.00  0.00    -0.126 N 
ATOM      2  C1  UNL     1      12.597  24.092  22.344  0.00  0.00    +0.252 A 
ATOM      3  N4  UNL     1      13.435  23.102  21.941  0.00  0.00    -0.178 NA
ATOM      4  C2  UNL     1      14.774  23.318  21.886  0.00  0.00    +0.240 A 
ATOM      5  N6  UNL     1      15.272  24.532  22.235  0.00  0.00    -0.187 NA
ATOM      6  C6  UNL     1      14.440  25.524  22.635  0.00  0.00    +0.194 A 
ATOM      7  N7  UNL     1      13.102  25.304  22.691  0.00  0.00    -0.187 NA
ATOM      8  H1  UNL     1      10.809  22.917  22.130  0.00  0.00    +0.193 HD
ENDROOT
BRANCH   1  10
ATOM      9  N1  UNL     1       9.625  25.631  23.123  0.00  0.00    -0.017 NA
ATOM     10  N2  UNL     1      10.332  24.827  22.795  0.00  0.00    -0.126 NA
ENDBRANCH   1  10
BRANCH   6  11
ATOM     11  S1  UNL     1      15.105  27.121  23.089  0.00  0.00    -0.089 S 
ATOM     12  C7  UNL     1      16.115  27.254  21.582  0.00  0.00    +0.093 C 
ENDBRANCH   6  11
BRANCH   4  13
ATOM     13  N5  UNL     1      15.638  22.260  21.453  0.00  0.00    -0.213 NA
BRANCH  13  14
ATOM     14  C3  UNL     1      16.435  21.378  22.310  0.00  0.00    +0.091 C 
ATOM     15  C4  UNL     1      15.540  20.483  23.173  0.00  0.00    +0.029 C 
ATOM     16  C5  UNL     1      17.437  20.561  21.489  0.00  0.00    +0.029 C 
ENDBRANCH  13  14
ENDBRANCH   4  13
TORSDOF 4
ENDMDL
MODEL 4
REMARK minimizedAffinity -4.08729935
REMARK minimizedRMSD -1
REMARK  Name = /home/tchapet/Post-Doc/ARTICLES-DOSSIERS-DES-ARTICLES-EN-REDACTION/NOUVELS-AXES-DE-RECHERCHE-A-REGARDER-URGEMMENT/ARTICLES-EN-REDACTIONS/ARTICLE_MVOTO/Paper2_Sensors_ActuatorsB/docking_rerun/ligands/20778.pdb
REMARK  7 active torsions:
REMARK  status: ('A' for Active; 'I' for Inactive)
REMARK    1  A    between atoms: N2_2  and  N3_3
REMARK    2  A    between atoms: C2_6  and  N5_7
REMARK    3  A    between atoms: N5_7  and  C3_8
REMARK    4  A    between atoms: C3_8  and  C4_9
REMARK    5  A    between atoms: C3_8  and  C5_10
REMARK    6  A    between atoms: C6_12  and  S1_14
REMARK    7  A    between atoms: S1_14  and  C7_15
REMARK                            x       y       z     vdW  Elec       q    Type
REMARK                         _______ _______ _______ _____ _____    ______ ____
ROOT
ATOM      1  N3  UNL     1     -23.820 -28.447   6.977  0.00  0.00    -0.126 N 
ATOM      2  C1  UNL     1     -23.614 -28.876   5.629  0.00  0.00    +0.252 A 
ATOM      3  N4  UNL     1     -22.500 -28.483   4.958  0.00  0.00    -0.178 NA
ATOM      4  C2  UNL     1     -22.294 -28.883   3.678  0.00  0.00    +0.240 A 
ATOM      5  N6  UNL     1     -23.208 -29.683   3.070  0.00  0.00    -0.187 NA
ATOM      6  C6  UNL     1     -24.320 -30.080   3.736  0.00  0.00    +0.194 A 
ATOM      7  N7  UNL     1     -24.523 -29.677   5.015  0.00  0.00    -0.187 NA
ATOM      8  H1  UNL     1     -23.115 -27.832   7.441  0.00  0.00    +0.193 HD
ENDROOT
BRANCH   1  10
ATOM      9  N1  UNL     1     -25.833 -29.147   8.238  0.00  0.00    -0.017 NA
ATOM     10  N2  UNL     1     -24.923 -28.830   7.668  0.00  0.00    -0.126 NA
ENDBRANCH   1  10
BRANCH   6  11
ATOM     11  S1  UNL     1     -25.516 -31.137   2.929  0.00  0.00    -0.089 S 
ATOM     12  C7  UNL     1     -26.292 -31.644   4.494  0.00  0.00    +0.093 C 
ENDBRANCH   6  11
BRANCH   4  13
ATOM     13  N5  UNL     1     -21.109 -28.459   2.992  0.00  0.00    -0.213 NA
BRANCH  13  14
ATOM     14  C3  UNL     1     -20.036 -29.320   2.489  0.00  0.00    +0.091 C 
ATOM     15  C4  UNL     1     -19.056 -28.533   1.613  0.00  0.00    +0.029 C 
ATOM     16  C5  UNL     1     -19.322 -30.044   3.635  0.00  0.00    +0.029 C 
ENDBRANCH  13  14
ENDBRANCH   4  13
TORSDOF 4
ENDMDL
MODEL 5
REMARK minimizedAffinity -4.07504272
REMARK minimizedRMSD -1
REMARK  Name = /home/tchapet/Post-Doc/ARTICLES-DOSSIERS-DES-ARTICLES-EN-REDACTION/NOUVELS-AXES-DE-RECHERCHE-A-REGARDER-URGEMMENT/ARTICLES-EN-REDACTIONS/ARTICLE_MVOTO/Paper2_Sensors_ActuatorsB/docking_rerun/ligands/20778.pdb
REMARK  7 active torsions:
REMARK  status: ('A' for Active; 'I' for Inactive)
REMARK    1  A    between atoms: N2_2  and  N3_3
REMARK    2  A    between atoms: C2_6  and  N5_7
REMARK    3  A    between atoms: N5_7  and  C3_8
REMARK    4  A    between atoms: C3_8  and  C4_9
REMARK    5  A    between atoms: C3_8  and  C5_10
REMARK    6  A    between atoms: C6_12  and  S1_14
REMARK    7  A    between atoms: S1_14  and  C7_15
REMARK                            x       y       z     vdW  Elec       q    Type
REMARK                         _______ _______ _______ _____ _____    ______ ____
ROOT
ATOM      1  N3  UNL     1     -24.327 -28.399   5.705  0.00  0.00    -0.126 N 
ATOM      2  C1  UNL     1     -23.137 -29.187   5.770  0.00  0.00    +0.252 A 
ATOM      3  N4  UNL     1     -22.258 -29.171   4.734  0.00  0.00    -0.178 NA
ATOM      4  C2  UNL     1     -21.125 -29.915   4.785  0.00  0.00    +0.240 A 
ATOM      5  N6  UNL     1     -20.871 -30.677   5.880  0.00  0.00    -0.187 NA
ATOM      6  C6  UNL     1     -21.743 -30.695   6.918  0.00  0.00    +0.194 A 
ATOM      7  N7  UNL     1     -22.876 -29.950   6.863  0.00  0.00    -0.187 NA
ATOM      8  H1  UNL     1     -24.520 -27.815   4.861  0.00  0.00    +0.193 HD
ENDROOT
BRANCH   1  10
ATOM      9  N1  UNL     1     -25.952 -28.396   7.574  0.00  0.00    -0.017 NA
ATOM     10  N2  UNL     1     -25.217 -28.397   6.728  0.00  0.00    -0.126 NA
ENDBRANCH   1  10
BRANCH   6  11
ATOM     11  S1  UNL     1     -21.399 -31.697   8.358  0.00  0.00    -0.089 S 
ATOM     12  C7  UNL     1     -22.975 -31.282   9.164  0.00  0.00    +0.093 C 
ENDBRANCH   6  11
BRANCH   4  13
ATOM     13  N5  UNL     1     -20.211 -29.879   3.681  0.00  0.00    -0.213 NA
BRANCH  13  14
ATOM     14  C3  UNL     1     -19.378 -28.744   3.275  0.00  0.00    +0.091 C 
ATOM     15  C4  UNL     1     -17.890 -29.105   3.313  0.00  0.00    +0.029 C 
ATOM     16  C5  UNL     1     -19.801 -28.208   1.904  0.00  0.00    +0.029 C 
ENDBRANCH  13  14
ENDBRANCH   4  13
TORSDOF 4
ENDMDL
MODEL 6
REMARK minimizedAffinity -4.03503132
REMARK minimizedRMSD -1
REMARK  Name = /home/tchapet/Post-Doc/ARTICLES-DOSSIERS-DES-ARTICLES-EN-REDACTION/NOUVELS-AXES-DE-RECHERCHE-A-REGARDER-URGEMMENT/ARTICLES-EN-REDACTIONS/ARTICLE_MVOTO/Paper2_Sensors_ActuatorsB/docking_rerun/ligands/20778.pdb
REMARK  7 active torsions:
REMARK  status: ('A' for Active; 'I' for Inactive)
REMARK    1  A    between atoms: N2_2  and  N3_3
REMARK    2  A    between atoms: C2_6  and  N5_7
REMARK    3  A    between atoms: N5_7  and  C3_8
REMARK    4  A    between atoms: C3_8  and  C4_9
REMARK    5  A    between atoms: C3_8  and  C5_10
REMARK    6  A    between atoms: C6_12  and  S1_14
REMARK    7  A    between atoms: S1_14  and  C7_15
REMARK                            x       y       z     vdW  Elec       q    Type
REMARK                         _______ _______ _______ _____ _____    ______ ____
ROOT
ATOM      1  N3  UNL     1     -28.480 -11.846   2.656  0.00  0.00    -0.126 N 
ATOM      2  C1  UNL     1     -28.733 -11.245   1.384  0.00  0.00    +0.252 A 
ATOM      3  N4  UNL     1     -28.970 -12.031   0.301  0.00  0.00    -0.178 NA
ATOM      4  C2  UNL     1     -29.210 -11.472  -0.911  0.00  0.00    +0.240 A 
ATOM      5  N6  UNL     1     -29.216 -10.121  -1.038  0.00  0.00    -0.187 NA
ATOM      6  C6  UNL     1     -28.983  -9.332   0.039  0.00  0.00    +0.194 A 
ATOM      7  N7  UNL     1     -28.741  -9.893   1.250  0.00  0.00    -0.187 NA
ATOM      8  H1  UNL     1     -28.476 -12.886   2.750  0.00  0.00    +0.193 HD
ENDROOT
BRANCH   1  10
ATOM      9  N1  UNL     1     -28.049 -10.449   4.655  0.00  0.00    -0.017 NA
ATOM     10  N2  UNL     1     -28.245 -11.081   3.751  0.00  0.00    -0.126 NA
ENDBRANCH   1  10
BRANCH   6  11
ATOM     11  S1  UNL     1     -28.996  -7.552  -0.136  0.00  0.00    -0.089 S 
ATOM     12  C7  UNL     1     -28.940  -7.262   1.658  0.00  0.00    +0.093 C 
ENDBRANCH   6  11
BRANCH   4  13
ATOM     13  N5  UNL     1     -29.462 -12.323  -2.038  0.00  0.00    -0.213 NA
BRANCH  13  14
ATOM     14  C3  UNL     1     -28.491 -12.729  -3.058  0.00  0.00    +0.091 C 
ATOM     15  C4  UNL     1     -28.001 -14.161  -2.819  0.00  0.00    +0.029 C 
ATOM     16  C5  UNL     1     -29.059 -12.549  -4.469  0.00  0.00    +0.029 C 
ENDBRANCH  13  14
ENDBRANCH   4  13
TORSDOF 4
ENDMDL
MODEL 7
REMARK minimizedAffinity -3.82491374
REMARK minimizedRMSD -1
REMARK  Name = /home/tchapet/Post-Doc/ARTICLES-DOSSIERS-DES-ARTICLES-EN-REDACTION/NOUVELS-AXES-DE-RECHERCHE-A-REGARDER-URGEMMENT/ARTICLES-EN-REDACTIONS/ARTICLE_MVOTO/Paper2_Sensors_ActuatorsB/docking_rerun/ligands/20778.pdb
REMARK  7 active torsions:
REMARK  status: ('A' for Active; 'I' for Inactive)
REMARK    1  A    between atoms: N2_2  and  N3_3
REMARK    2  A    between atoms: C2_6  and  N5_7
REMARK    3  A    between atoms: N5_7  and  C3_8
REMARK    4  A    between atoms: C3_8  and  C4_9
REMARK    5  A    between atoms: C3_8  and  C5_10
REMARK    6  A    between atoms: C6_12  and  S1_14
REMARK    7  A    between atoms: S1_14  and  C7_15
REMARK                            x       y       z     vdW  Elec       q    Type
REMARK                         _______ _______ _______ _____ _____    ______ ____
ROOT
ATOM      1  N3  UNL     1     -25.618  -4.570   6.156  0.00  0.00    -0.126 N 
ATOM      2  C1  UNL     1     -24.323  -3.976   6.049  0.00  0.00    +0.252 A 
ATOM      3  N4  UNL     1     -23.717  -3.889   4.837  0.00  0.00    -0.178 NA
ATOM      4  C2  UNL     1     -22.488  -3.327   4.723  0.00  0.00    +0.240 A 
ATOM      5  N6  UNL     1     -21.864  -2.849   5.831  0.00  0.00    -0.187 NA
ATOM      6  C6  UNL     1     -22.465  -2.931   7.043  0.00  0.00    +0.194 A 
ATOM      7  N7  UNL     1     -23.694  -3.495   7.153  0.00  0.00    -0.187 NA
ATOM      8  H1  UNL     1     -26.095  -4.938   5.302  0.00  0.00    +0.193 HD
ENDROOT
BRANCH   1  10
ATOM      9  N1  UNL     1     -26.760  -4.743   8.347  0.00  0.00    -0.017 NA
ATOM     10  N2  UNL     1     -26.243  -4.665   7.356  0.00  0.00    -0.126 NA
ENDBRANCH   1  10
BRANCH   6  11
ATOM     11  S1  UNL     1     -21.638  -2.295   8.495  0.00  0.00    -0.089 S 
ATOM     12  C7  UNL     1     -20.043  -2.104   7.643  0.00  0.00    +0.093 C 
ENDBRANCH   6  11
BRANCH   4  13
ATOM     13  N5  UNL     1     -21.871  -3.242   3.432  0.00  0.00    -0.213 NA
BRANCH  13  14
ATOM     14  C3  UNL     1     -20.465  -3.508   3.117  0.00  0.00    +0.091 C 
ATOM     15  C4  UNL     1     -20.316  -4.764   2.252  0.00  0.00    +0.029 C 
ATOM     16  C5  UNL     1     -19.799  -2.289   2.472  0.00  0.00    +0.029 C 
ENDBRANCH  13  14
ENDBRANCH   4  13
TORSDOF 4
ENDMDL
MODEL 8
REMARK minimizedAffinity -3.78208637
REMARK minimizedRMSD -1
REMARK  Name = /home/tchapet/Post-Doc/ARTICLES-DOSSIERS-DES-ARTICLES-EN-REDACTION/NOUVELS-AXES-DE-RECHERCHE-A-REGARDER-URGEMMENT/ARTICLES-EN-REDACTIONS/ARTICLE_MVOTO/Paper2_Sensors_ActuatorsB/docking_rerun/ligands/20778.pdb
REMARK  7 active torsions:
REMARK  status: ('A' for Active; 'I' for Inactive)
REMARK    1  A    between atoms: N2_2  and  N3_3
REMARK    2  A    between atoms: C2_6  and  N5_7
REMARK    3  A    between atoms: N5_7  and  C3_8
REMARK    4  A    between atoms: C3_8  and  C4_9
REMARK    5  A    between atoms: C3_8  and  C5_10
REMARK    6  A    between atoms: C6_12  and  S1_14
REMARK    7  A    between atoms: S1_14  and  C7_15
REMARK                            x       y       z     vdW  Elec       q    Type
REMARK                         _______ _______ _______ _____ _____    ______ ____
ROOT
ATOM      1  N3  UNL     1     -21.919 -27.059  -7.872  0.00  0.00    -0.126 N 
ATOM      2  C1  UNL     1     -21.412 -25.739  -8.081  0.00  0.00    +0.252 A 
ATOM      3  N4  UNL     1     -22.199 -24.664  -7.818  0.00  0.00    -0.178 NA
ATOM      4  C2  UNL     1     -21.728 -23.406  -8.014  0.00  0.00    +0.240 A 
ATOM      5  N6  UNL     1     -20.463 -23.227  -8.474  0.00  0.00    -0.187 NA
ATOM      6  C6  UNL     1     -19.673 -24.297  -8.735  0.00  0.00    +0.194 A 
ATOM      7  N7  UNL     1     -20.147 -25.553  -8.540  0.00  0.00    -0.187 NA
ATOM      8  H1  UNL     1     -22.893 -27.193  -7.519  0.00  0.00    +0.193 HD
ENDROOT
BRANCH   1  10
ATOM      9  N1  UNL     1     -20.516 -29.047  -8.335  0.00  0.00    -0.017 NA
ATOM     10  N2  UNL     1     -21.151 -28.148  -8.125  0.00  0.00    -0.126 NA
ENDBRANCH   1  10
BRANCH   6  11
ATOM     11  S1  UNL     1     -18.007 -24.052  -9.337  0.00  0.00    -0.089 S 
ATOM     12  C7  UNL     1     -17.615 -25.828  -9.311  0.00  0.00    +0.093 C 
ENDBRANCH   6  11
BRANCH   4  13
ATOM     13  N5  UNL     1     -22.576 -22.287  -7.725  0.00  0.00    -0.213 NA
BRANCH  13  14
ATOM     14  C3  UNL     1     -22.152 -20.978  -7.222  0.00  0.00    +0.091 C 
ATOM     15  C4  UNL     1     -23.157 -19.885  -7.602  0.00  0.00    +0.029 C 
ATOM     16  C5  UNL     1     -21.896 -21.018  -5.713  0.00  0.00    +0.029 C 
ENDBRANCH  13  14
ENDBRANCH   4  13
TORSDOF 4
ENDMDL
MODEL 9
REMARK minimizedAffinity -3.76831961
REMARK minimizedRMSD -1
REMARK  Name = /home/tchapet/Post-Doc/ARTICLES-DOSSIERS-DES-ARTICLES-EN-REDACTION/NOUVELS-AXES-DE-RECHERCHE-A-REGARDER-URGEMMENT/ARTICLES-EN-REDACTIONS/ARTICLE_MVOTO/Paper2_Sensors_ActuatorsB/docking_rerun/ligands/20778.pdb
REMARK  7 active torsions:
REMARK  status: ('A' for Active; 'I' for Inactive)
REMARK    1  A    between atoms: N2_2  and  N3_3
REMARK    2  A    between atoms: C2_6  and  N5_7
REMARK    3  A    between atoms: N5_7  and  C3_8
REMARK    4  A    between atoms: C3_8  and  C4_9
REMARK    5  A    between atoms: C3_8  and  C5_10
REMARK    6  A    between atoms: C6_12  and  S1_14
REMARK    7  A    between atoms: S1_14  and  C7_15
REMARK                            x       y       z     vdW  Elec       q    Type
REMARK                         _______ _______ _______ _____ _____    ______ ____
ROOT
ATOM      1  N3  UNL     1     -18.072 -31.764   7.119  0.00  0.00    -0.126 N 
ATOM      2  C1  UNL     1     -19.078 -31.295   6.219  0.00  0.00    +0.252 A 
ATOM      3  N4  UNL     1     -18.790 -31.150   4.900  0.00  0.00    -0.178 NA
ATOM      4  C2  UNL     1     -19.737 -30.706   4.036  0.00  0.00    +0.240 A 
ATOM      5  N6  UNL     1     -20.979 -30.407   4.498  0.00  0.00    -0.187 NA
ATOM      6  C6  UNL     1     -21.272 -30.552   5.813  0.00  0.00    +0.194 A 
ATOM      7  N7  UNL     1     -20.322 -30.995   6.674  0.00  0.00    -0.187 NA
ATOM      8  H1  UNL     1     -17.118 -31.992   6.761  0.00  0.00    +0.193 HD
ENDROOT
BRANCH   1  10
ATOM      9  N1  UNL     1     -18.558 -32.047   9.532  0.00  0.00    -0.017 NA
ATOM     10  N2  UNL     1     -18.338 -31.918   8.440  0.00  0.00    -0.126 NA
ENDBRANCH   1  10
BRANCH   6  11
ATOM     11  S1  UNL     1     -22.911 -30.159   6.412  0.00  0.00    -0.089 S 
ATOM     12  C7  UNL     1     -23.125 -28.773   5.254  0.00  0.00    +0.093 C 
ENDBRANCH   6  11
BRANCH   4  13
ATOM     13  N5  UNL     1     -19.410 -30.566   2.647  0.00  0.00    -0.213 NA
BRANCH  13  14
ATOM     14  C3  UNL     1     -18.751 -29.419   2.017  0.00  0.00    +0.091 C 
ATOM     15  C4  UNL     1     -18.171 -29.794   0.649  0.00  0.00    +0.029 C 
ATOM     16  C5  UNL     1     -19.694 -28.216   1.928  0.00  0.00    +0.029 C 
ENDBRANCH  13  14
ENDBRANCH   4  13
TORSDOF 4
ENDMDL
