MODEL 1
REMARK minimizedAffinity -5.89490366
REMARK minimizedRMSD -1
REMARK  Name = /home/tchapet/Post-Doc/ARTICLES-DOSSIERS-DES-ARTICLES-EN-REDACTION/NOUVELS-AXES-DE-RECHERCHE-A-REGARDER-URGEMMENT/ARTICLES-EN-REDACTIONS/ARTICLE_MVOTO/Paper2_Sensors_ActuatorsB/docking_rerun/ligands/4550.pdb
REMARK  4 active torsions:
REMARK  status: ('A' for Active; 'I' for Inactive)
REMARK    1  A    between atoms: N1_2  and  C1_3
REMARK    2  A    between atoms: C4_6  and  N2_7
REMARK    3  A    between atoms: N2_7  and  O2_8
REMARK    4  A    between atoms: N2_7  and  O3_9
REMARK                            x       y       z     vdW  Elec       q    Type
REMARK                         _______ _______ _______ _____ _____    ______ ____
ROOT
ATOM      1  C1  UNL     1     -18.651 -31.044   1.772  0.00  0.00    +0.180 C 
ATOM      2  C2  UNL     1     -19.865 -30.730   2.188  0.00  0.00    +0.034 A 
ATOM      3  C3  UNL     1     -20.289 -29.592   2.862  0.00  0.00    +0.043 A 
ATOM      4  C4  UNL     1     -21.649 -29.474   3.212  0.00  0.00    +0.099 A 
ATOM      5  C5  UNL     1     -22.575 -30.499   2.833  0.00  0.00    -0.014 A 
ATOM      6  C6  UNL     1     -22.102 -31.671   2.169  0.00  0.00    -0.018 A 
ATOM      7  C7  UNL     1     -20.741 -31.749   1.849  0.00  0.00    +0.070 A 
ATOM      8  N3  UNL     1     -20.173 -32.733   1.217  0.00  0.00    -0.174 NA
ATOM      9  C8  UNL     1     -18.807 -32.337   1.135  0.00  0.00    +0.290 C 
ATOM     10  O4  UNL     1     -17.901 -33.019   0.591  0.00  0.00    -0.266 OA
ATOM     11  C9  UNL     1     -23.037 -32.768   1.704  0.00  0.00    +0.037 C 
ATOM     12  C10 UNL     1     -24.404 -32.711   2.384  0.00  0.00    +0.005 C 
ATOM     13  C11 UNL     1     -24.948 -31.288   2.350  0.00  0.00    +0.005 C 
ATOM     14  C12 UNL     1     -24.049 -30.359   3.168  0.00  0.00    +0.038 C 
ENDROOT
BRANCH   1  16
ATOM     15  O1  UNL     1     -16.526 -30.658   2.642  0.00  0.00    -0.143 OA
ATOM     16  N1  UNL     1     -17.465 -30.263   1.923  0.00  0.00    -0.025 NA
ENDBRANCH   1  16
BRANCH   4  17
ATOM     17  N2  UNL     1     -22.067 -28.308   3.950  0.00  0.00    -0.128 N 
BRANCH  17  18
ATOM     18  O2  UNL     1     -22.370 -27.150   3.313  0.00  0.00    -0.262 OA
ATOM     19  H2  UNL     1     -23.335 -27.222   3.101  0.00  0.00    +0.247 HD
ENDBRANCH  17  18
BRANCH  17  20
ATOM     20  O3  UNL     1     -22.213 -28.371   5.296  0.00  0.00    -0.262 OA
ATOM     21  H3  UNL     1     -23.167 -28.603   5.439  0.00  0.00    +0.247 HD
ENDBRANCH  17  20
ENDBRANCH   4  17
TORSDOF 4
ENDMDL
MODEL 2
REMARK minimizedAffinity -5.88793898
REMARK minimizedRMSD -1
REMARK  Name = /home/tchapet/Post-Doc/ARTICLES-DOSSIERS-DES-ARTICLES-EN-REDACTION/NOUVELS-AXES-DE-RECHERCHE-A-REGARDER-URGEMMENT/ARTICLES-EN-REDACTIONS/ARTICLE_MVOTO/Paper2_Sensors_ActuatorsB/docking_rerun/ligands/4550.pdb
REMARK  4 active torsions:
REMARK  status: ('A' for Active; 'I' for Inactive)
REMARK    1  A    between atoms: N1_2  and  C1_3
REMARK    2  A    between atoms: C4_6  and  N2_7
REMARK    3  A    between atoms: N2_7  and  O2_8
REMARK    4  A    between atoms: N2_7  and  O3_9
REMARK                            x       y       z     vdW  Elec       q    Type
REMARK                         _______ _______ _______ _____ _____    ______ ____
ROOT
ATOM      1  C1  UNL     1     -23.203 -29.857   4.650  0.00  0.00    +0.180 C 
ATOM      2  C2  UNL     1     -22.153 -29.984   3.858  0.00  0.00    +0.034 A 
ATOM      3  C3  UNL     1     -21.179 -29.046   3.542  0.00  0.00    +0.043 A 
ATOM      4  C4  UNL     1     -20.141 -29.410   2.661  0.00  0.00    +0.099 A 
ATOM      5  C5  UNL     1     -20.080 -30.744   2.143  0.00  0.00    -0.014 A 
ATOM      6  C6  UNL     1     -21.115 -31.675   2.462  0.00  0.00    -0.018 A 
ATOM      7  C7  UNL     1     -22.131 -31.267   3.335  0.00  0.00    +0.070 A 
ATOM      8  N3  UNL     1     -23.115 -32.011   3.742  0.00  0.00    -0.174 NA
ATOM      9  C8  UNL     1     -23.854 -31.150   4.603  0.00  0.00    +0.290 C 
ATOM     10  O4  UNL     1     -24.902 -31.486   5.214  0.00  0.00    -0.266 OA
ATOM     11  C9  UNL     1     -21.083 -33.111   1.981  0.00  0.00    +0.037 C 
ATOM     12  C10 UNL     1     -20.125 -33.325   0.810  0.00  0.00    +0.005 C 
ATOM     13  C11 UNL     1     -18.780 -32.673   1.108  0.00  0.00    +0.005 C 
ATOM     14  C12 UNL     1     -18.942 -31.157   1.227  0.00  0.00    +0.038 C 
ENDROOT
BRANCH   1  16
ATOM     15  O1  UNL     1     -23.928 -28.774   6.580  0.00  0.00    -0.143 OA
ATOM     16  N1  UNL     1     -23.586 -28.693   5.383  0.00  0.00    -0.025 NA
ENDBRANCH   1  16
BRANCH   4  17
ATOM     17  N2  UNL     1     -19.162 -28.412   2.309  0.00  0.00    -0.128 N 
BRANCH  17  18
ATOM     18  O2  UNL     1     -19.299 -27.665   1.186  0.00  0.00    -0.262 OA
ATOM     19  H2  UNL     1     -19.834 -26.879   1.467  0.00  0.00    +0.247 HD
ENDBRANCH  17  18
BRANCH  17  20
ATOM     20  O3  UNL     1     -18.111 -28.169   3.131  0.00  0.00    -0.262 OA
ATOM     21  H3  UNL     1     -18.413 -27.432   3.721  0.00  0.00    +0.247 HD
ENDBRANCH  17  20
ENDBRANCH   4  17
TORSDOF 4
ENDMDL
MODEL 3
REMARK minimizedAffinity -5.86307335
REMARK minimizedRMSD -1
REMARK  Name = /home/tchapet/Post-Doc/ARTICLES-DOSSIERS-DES-ARTICLES-EN-REDACTION/NOUVELS-AXES-DE-RECHERCHE-A-REGARDER-URGEMMENT/ARTICLES-EN-REDACTIONS/ARTICLE_MVOTO/Paper2_Sensors_ActuatorsB/docking_rerun/ligands/4550.pdb
REMARK  4 active torsions:
REMARK  status: ('A' for Active; 'I' for Inactive)
REMARK    1  A    between atoms: N1_2  and  C1_3
REMARK    2  A    between atoms: C4_6  and  N2_7
REMARK    3  A    between atoms: N2_7  and  O2_8
REMARK    4  A    between atoms: N2_7  and  O3_9
REMARK                            x       y       z     vdW  Elec       q    Type
REMARK                         _______ _______ _______ _____ _____    ______ ____
ROOT
ATOM      1  C1  UNL     1     -23.180 -32.723   1.974  0.00  0.00    +0.180 C 
ATOM      2  C2  UNL     1     -22.422 -31.701   2.331  0.00  0.00    +0.034 A 
ATOM      3  C3  UNL     1     -22.773 -30.559   3.038  0.00  0.00    +0.043 A 
ATOM      4  C4  UNL     1     -21.785 -29.590   3.304  0.00  0.00    +0.099 A 
ATOM      5  C5  UNL     1     -20.434 -29.815   2.883  0.00  0.00    -0.014 A 
ATOM      6  C6  UNL     1     -20.112 -30.984   2.130  0.00  0.00    -0.018 A 
ATOM      7  C7  UNL     1     -21.129 -31.916   1.883  0.00  0.00    +0.070 A 
ATOM      8  N3  UNL     1     -20.980 -33.039   1.245  0.00  0.00    -0.174 NA
ATOM      9  C8  UNL     1     -22.282 -33.614   1.267  0.00  0.00    +0.290 C 
ATOM     10  O4  UNL     1     -22.578 -34.722   0.749  0.00  0.00    -0.266 OA
ATOM     11  C9  UNL     1     -18.696 -31.300   1.695  0.00  0.00    +0.037 C 
ATOM     12  C10 UNL     1     -17.775 -30.082   1.744  0.00  0.00    +0.005 C 
ATOM     13  C11 UNL     1     -17.937 -29.356   3.075  0.00  0.00    +0.005 C 
ATOM     14  C12 UNL     1     -19.355 -28.796   3.202  0.00  0.00    +0.038 C 
ENDROOT
BRANCH   1  16
ATOM     15  O1  UNL     1     -25.434 -32.364   1.511  0.00  0.00    -0.143 OA
ATOM     16  N1  UNL     1     -24.572 -32.891   2.243  0.00  0.00    -0.025 NA
ENDBRANCH   1  16
BRANCH   4  17
ATOM     17  N2  UNL     1     -22.174 -28.389   4.000  0.00  0.00    -0.128 N 
BRANCH  17  18
ATOM     18  O2  UNL     1     -22.266 -28.364   5.352  0.00  0.00    -0.262 OA
ATOM     19  H2  UNL     1     -21.358 -28.116   5.664  0.00  0.00    +0.247 HD
ENDBRANCH  17  18
BRANCH  17  20
ATOM     20  O3  UNL     1     -22.403 -27.246   3.309  0.00  0.00    -0.262 OA
ATOM     21  H3  UNL     1     -21.534 -26.769   3.307  0.00  0.00    +0.247 HD
ENDBRANCH  17  20
ENDBRANCH   4  17
TORSDOF 4
ENDMDL
MODEL 4
REMARK minimizedAffinity -5.59858131
REMARK minimizedRMSD -1
REMARK  Name = /home/tchapet/Post-Doc/ARTICLES-DOSSIERS-DES-ARTICLES-EN-REDACTION/NOUVELS-AXES-DE-RECHERCHE-A-REGARDER-URGEMMENT/ARTICLES-EN-REDACTIONS/ARTICLE_MVOTO/Paper2_Sensors_ActuatorsB/docking_rerun/ligands/4550.pdb
REMARK  4 active torsions:
REMARK  status: ('A' for Active; 'I' for Inactive)
REMARK    1  A    between atoms: N1_2  and  C1_3
REMARK    2  A    between atoms: C4_6  and  N2_7
REMARK    3  A    between atoms: N2_7  and  O2_8
REMARK    4  A    between atoms: N2_7  and  O3_9
REMARK                            x       y       z     vdW  Elec       q    Type
REMARK                         _______ _______ _______ _____ _____    ______ ____
ROOT
ATOM      1  C1  UNL     1     -21.521 -33.899   1.379  0.00  0.00    +0.180 C 
ATOM      2  C2  UNL     1     -21.599 -32.655   1.815  0.00  0.00    +0.034 A 
ATOM      3  C3  UNL     1     -22.673 -32.003   2.407  0.00  0.00    +0.043 A 
ATOM      4  C4  UNL     1     -22.525 -30.656   2.793  0.00  0.00    +0.099 A 
ATOM      5  C5  UNL     1     -21.266 -29.996   2.613  0.00  0.00    -0.014 A 
ATOM      6  C6  UNL     1     -20.191 -30.684   1.973  0.00  0.00    -0.018 A 
ATOM      7  C7  UNL     1     -20.387 -32.019   1.598  0.00  0.00    +0.070 A 
ATOM      8  N3  UNL     1     -19.493 -32.782   1.040  0.00  0.00    -0.174 NA
ATOM      9  C8  UNL     1     -20.170 -34.023   0.869  0.00  0.00    +0.290 C 
ATOM     10  O4  UNL     1     -19.653 -35.048   0.355  0.00  0.00    -0.266 OA
ATOM     11  C9  UNL     1     -18.825 -30.056   1.794  0.00  0.00    +0.037 C 
ATOM     12  C10 UNL     1     -18.845 -28.536   1.946  0.00  0.00    +0.005 C 
ATOM     13  C11 UNL     1     -19.618 -28.146   3.200  0.00  0.00    +0.005 C 
ATOM     14  C12 UNL     1     -21.085 -28.559   3.066  0.00  0.00    +0.038 C 
ENDROOT
BRANCH   1  16
ATOM     15  O1  UNL     1     -23.416 -34.947   0.521  0.00  0.00    -0.143 OA
ATOM     16  N1  UNL     1     -22.552 -34.887   1.418  0.00  0.00    -0.025 NA
ENDBRANCH   1  16
BRANCH   4  17
ATOM     17  N2  UNL     1     -23.662 -29.980   3.365  0.00  0.00    -0.128 N 
BRANCH  17  18
ATOM     18  O2  UNL     1     -23.870 -29.972   4.705  0.00  0.00    -0.262 OA
ATOM     19  H2  UNL     1     -23.374 -29.179   5.034  0.00  0.00    +0.247 HD
ENDBRANCH  17  18
BRANCH  17  20
ATOM     20  O3  UNL     1     -24.517 -29.292   2.568  0.00  0.00    -0.262 OA
ATOM     21  H3  UNL     1     -24.171 -28.363   2.563  0.00  0.00    +0.247 HD
ENDBRANCH  17  20
ENDBRANCH   4  17
TORSDOF 4
ENDMDL
MODEL 5
REMARK minimizedAffinity -5.48536539
REMARK minimizedRMSD -1
REMARK  Name = /home/tchapet/Post-Doc/ARTICLES-DOSSIERS-DES-ARTICLES-EN-REDACTION/NOUVELS-AXES-DE-RECHERCHE-A-REGARDER-URGEMMENT/ARTICLES-EN-REDACTIONS/ARTICLE_MVOTO/Paper2_Sensors_ActuatorsB/docking_rerun/ligands/4550.pdb
REMARK  4 active torsions:
REMARK  status: ('A' for Active; 'I' for Inactive)
REMARK    1  A    between atoms: N1_2  and  C1_3
REMARK    2  A    between atoms: C4_6  and  N2_7
REMARK    3  A    between atoms: N2_7  and  O2_8
REMARK    4  A    between atoms: N2_7  and  O3_9
REMARK                            x       y       z     vdW  Elec       q    Type
REMARK                         _______ _______ _______ _____ _____    ______ ____
ROOT
ATOM      1  C1  UNL     1     -24.091 -32.124   2.304  0.00  0.00    +0.180 C 
ATOM      2  C2  UNL     1     -22.810 -31.813   2.213  0.00  0.00    +0.034 A 
ATOM      3  C3  UNL     1     -21.748 -32.602   1.791  0.00  0.00    +0.043 A 
ATOM      4  C4  UNL     1     -20.451 -32.052   1.780  0.00  0.00    +0.099 A 
ATOM      5  C5  UNL     1     -20.253 -30.684   2.159  0.00  0.00    -0.014 A 
ATOM      6  C6  UNL     1     -21.361 -29.909   2.618  0.00  0.00    -0.018 A 
ATOM      7  C7  UNL     1     -22.630 -30.501   2.620  0.00  0.00    +0.070 A 
ATOM      8  N3  UNL     1     -23.733 -29.912   2.975  0.00  0.00    -0.174 NA
ATOM      9  C8  UNL     1     -24.725 -30.917   2.794  0.00  0.00    +0.290 C 
ATOM     10  O4  UNL     1     -25.951 -30.756   3.030  0.00  0.00    -0.266 OA
ATOM     11  C9  UNL     1     -21.224 -28.448   2.990  0.00  0.00    +0.037 C 
ATOM     12  C10 UNL     1     -19.776 -28.033   3.246  0.00  0.00    +0.005 C 
ATOM     13  C11 UNL     1     -18.878 -28.541   2.124  0.00  0.00    +0.005 C 
ATOM     14  C12 UNL     1     -18.865 -30.071   2.109  0.00  0.00    +0.038 C 
ENDROOT
BRANCH   1  16
ATOM     15  O1  UNL     1     -25.316 -33.531   0.910  0.00  0.00    -0.143 OA
ATOM     16  N1  UNL     1     -24.693 -33.378   1.979  0.00  0.00    -0.025 NA
ENDBRANCH   1  16
BRANCH   4  17
ATOM     17  N2  UNL     1     -19.353 -32.897   1.382  0.00  0.00    -0.128 N 
BRANCH  17  18
ATOM     18  O2  UNL     1     -18.644 -33.599   2.298  0.00  0.00    -0.262 OA
ATOM     19  H2  UNL     1     -19.127 -34.461   2.387  0.00  0.00    +0.247 HD
ENDBRANCH  17  18
BRANCH  17  20
ATOM     20  O3  UNL     1     -19.048 -33.041   0.068  0.00  0.00    -0.262 OA
ATOM     21  H3  UNL     1     -19.557 -33.839  -0.227  0.00  0.00    +0.247 HD
ENDBRANCH  17  20
ENDBRANCH   4  17
TORSDOF 4
ENDMDL
MODEL 6
REMARK minimizedAffinity -5.37995195
REMARK minimizedRMSD -1
REMARK  Name = /home/tchapet/Post-Doc/ARTICLES-DOSSIERS-DES-ARTICLES-EN-REDACTION/NOUVELS-AXES-DE-RECHERCHE-A-REGARDER-URGEMMENT/ARTICLES-EN-REDACTIONS/ARTICLE_MVOTO/Paper2_Sensors_ActuatorsB/docking_rerun/ligands/4550.pdb
REMARK  4 active torsions:
REMARK  status: ('A' for Active; 'I' for Inactive)
REMARK    1  A    between atoms: N1_2  and  C1_3
REMARK    2  A    between atoms: C4_6  and  N2_7
REMARK    3  A    between atoms: N2_7  and  O2_8
REMARK    4  A    between atoms: N2_7  and  O3_9
REMARK                            x       y       z     vdW  Elec       q    Type
REMARK                         _______ _______ _______ _____ _____    ______ ____
ROOT
ATOM      1  C1  UNL     1     -22.279 -33.514   1.337  0.00  0.00    +0.180 C 
ATOM      2  C2  UNL     1     -21.426 -32.558   1.657  0.00  0.00    +0.034 A 
ATOM      3  C3  UNL     1     -20.051 -32.514   1.465  0.00  0.00    +0.043 A 
ATOM      4  C4  UNL     1     -19.338 -31.377   1.894  0.00  0.00    +0.099 A 
ATOM      5  C5  UNL     1     -20.040 -30.273   2.479  0.00  0.00    -0.014 A 
ATOM      6  C6  UNL     1     -21.449 -30.363   2.692  0.00  0.00    -0.018 A 
ATOM      7  C7  UNL     1     -22.115 -31.516   2.256  0.00  0.00    +0.070 A 
ATOM      8  N3  UNL     1     -23.395 -31.724   2.349  0.00  0.00    -0.174 NA
ATOM      9  C8  UNL     1     -23.568 -33.013   1.769  0.00  0.00    +0.290 C 
ATOM     10  O4  UNL     1     -24.676 -33.599   1.660  0.00  0.00    -0.266 OA
ATOM     11  C9  UNL     1     -22.253 -29.214   3.264  0.00  0.00    +0.037 C 
ATOM     12  C10 UNL     1     -21.385 -28.177   3.975  0.00  0.00    +0.005 C 
ATOM     13  C11 UNL     1     -20.189 -27.810   3.104  0.00  0.00    +0.005 C 
ATOM     14  C12 UNL     1     -19.285 -29.028   2.906  0.00  0.00    +0.038 C 
ENDROOT
BRANCH   1  16
ATOM     15  O1  UNL     1     -22.364 -34.995  -0.459  0.00  0.00    -0.143 OA
ATOM     16  N1  UNL     1     -21.974 -34.757   0.702  0.00  0.00    -0.025 NA
ENDBRANCH   1  16
BRANCH   4  17
ATOM     17  N2  UNL     1     -17.906 -31.365   1.728  0.00  0.00    -0.128 N 
BRANCH  17  18
ATOM     18  O2  UNL     1     -17.087 -31.876   2.679  0.00  0.00    -0.262 OA
ATOM     19  H2  UNL     1     -16.994 -32.835   2.445  0.00  0.00    +0.247 HD
ENDBRANCH  17  18
BRANCH  17  20
ATOM     20  O3  UNL     1     -17.359 -30.886   0.583  0.00  0.00    -0.262 OA
ATOM     21  H3  UNL     1     -17.258 -31.679  -0.004  0.00  0.00    +0.247 HD
ENDBRANCH  17  20
ENDBRANCH   4  17
TORSDOF 4
ENDMDL
MODEL 7
REMARK minimizedAffinity -5.35535097
REMARK minimizedRMSD -1
REMARK  Name = /home/tchapet/Post-Doc/ARTICLES-DOSSIERS-DES-ARTICLES-EN-REDACTION/NOUVELS-AXES-DE-RECHERCHE-A-REGARDER-URGEMMENT/ARTICLES-EN-REDACTIONS/ARTICLE_MVOTO/Paper2_Sensors_ActuatorsB/docking_rerun/ligands/4550.pdb
REMARK  4 active torsions:
REMARK  status: ('A' for Active; 'I' for Inactive)
REMARK    1  A    between atoms: N1_2  and  C1_3
REMARK    2  A    between atoms: C4_6  and  N2_7
REMARK    3  A    between atoms: N2_7  and  O2_8
REMARK    4  A    between atoms: N2_7  and  O3_9
REMARK                            x       y       z     vdW  Elec       q    Type
REMARK                         _______ _______ _______ _____ _____    ______ ____
ROOT
ATOM      1  C1  UNL     1       0.274 -13.342  -1.826  0.00  0.00    +0.180 C 
ATOM      2  C2  UNL     1      -0.503 -12.430  -2.383  0.00  0.00    +0.034 A 
ATOM      3  C3  UNL     1      -0.682 -12.141  -3.729  0.00  0.00    +0.043 A 
ATOM      4  C4  UNL     1      -1.571 -11.110  -4.093  0.00  0.00    +0.099 A 
ATOM      5  C5  UNL     1      -2.304 -10.410  -3.080  0.00  0.00    -0.014 A 
ATOM      6  C6  UNL     1      -2.074 -10.710  -1.703  0.00  0.00    -0.018 A 
ATOM      7  C7  UNL     1      -1.175 -11.737  -1.389  0.00  0.00    +0.070 A 
ATOM      8  N3  UNL     1      -0.890 -12.144  -0.188  0.00  0.00    -0.174 NA
ATOM      9  C8  UNL     1       0.052 -13.191  -0.402  0.00  0.00    +0.290 C 
ATOM     10  O4  UNL     1       0.589 -13.861   0.518  0.00  0.00    -0.266 OA
ATOM     11  C9  UNL     1      -2.849 -10.036  -0.590  0.00  0.00    +0.037 C 
ATOM     12  C10 UNL     1      -3.538  -8.749  -1.041  0.00  0.00    +0.005 C 
ATOM     13  C11 UNL     1      -4.283  -8.984  -2.349  0.00  0.00    +0.005 C 
ATOM     14  C12 UNL     1      -3.296  -9.327  -3.466  0.00  0.00    +0.038 C 
ENDROOT
BRANCH   1  16
ATOM     15  O1  UNL     1       2.362 -14.080  -2.546  0.00  0.00    -0.143 OA
ATOM     16  N1  UNL     1       1.130 -14.266  -2.500  0.00  0.00    -0.025 NA
ENDBRANCH   1  16
BRANCH   4  17
ATOM     17  N2  UNL     1      -1.713 -10.791  -5.491  0.00  0.00    -0.128 N 
BRANCH  17  18
ATOM     18  O2  UNL     1      -0.985  -9.800  -6.060  0.00  0.00    -0.262 OA
ATOM     19  H2  UNL     1      -0.149 -10.240  -6.361  0.00  0.00    +0.247 HD
ENDBRANCH  17  18
BRANCH  17  20
ATOM     20  O3  UNL     1      -2.546 -11.521  -6.274  0.00  0.00    -0.262 OA
ATOM     21  H3  UNL     1      -1.976 -12.234  -6.660  0.00  0.00    +0.247 HD
ENDBRANCH  17  20
ENDBRANCH   4  17
TORSDOF 4
ENDMDL
MODEL 8
REMARK minimizedAffinity -5.32289791
REMARK minimizedRMSD -1
REMARK  Name = /home/tchapet/Post-Doc/ARTICLES-DOSSIERS-DES-ARTICLES-EN-REDACTION/NOUVELS-AXES-DE-RECHERCHE-A-REGARDER-URGEMMENT/ARTICLES-EN-REDACTIONS/ARTICLE_MVOTO/Paper2_Sensors_ActuatorsB/docking_rerun/ligands/4550.pdb
REMARK  4 active torsions:
REMARK  status: ('A' for Active; 'I' for Inactive)
REMARK    1  A    between atoms: N1_2  and  C1_3
REMARK    2  A    between atoms: C4_6  and  N2_7
REMARK    3  A    between atoms: N2_7  and  O2_8
REMARK    4  A    between atoms: N2_7  and  O3_9
REMARK                            x       y       z     vdW  Elec       q    Type
REMARK                         _______ _______ _______ _____ _____    ______ ____
ROOT
ATOM      1  C1  UNL     1     -23.140 -33.195   2.807  0.00  0.00    +0.180 C 
ATOM      2  C2  UNL     1     -22.865 -31.957   3.177  0.00  0.00    +0.034 A 
ATOM      3  C3  UNL     1     -23.505 -31.166   4.123  0.00  0.00    +0.043 A 
ATOM      4  C4  UNL     1     -23.032 -29.859   4.351  0.00  0.00    +0.099 A 
ATOM      5  C5  UNL     1     -21.882 -29.382   3.643  0.00  0.00    -0.014 A 
ATOM      6  C6  UNL     1     -21.266 -30.208   2.654  0.00  0.00    -0.018 A 
ATOM      7  C7  UNL     1     -21.775 -31.498   2.455  0.00  0.00    +0.070 A 
ATOM      8  N3  UNL     1     -21.300 -32.373   1.619  0.00  0.00    -0.174 NA
ATOM      9  C8  UNL     1     -22.147 -33.504   1.798  0.00  0.00    +0.290 C 
ATOM     10  O4  UNL     1     -22.029 -34.586   1.167  0.00  0.00    -0.266 OA
ATOM     11  C9  UNL     1     -20.023 -29.779   1.904  0.00  0.00    +0.037 C 
ATOM     12  C10 UNL     1     -19.774 -28.273   1.979  0.00  0.00    +0.005 C 
ATOM     13  C11 UNL     1     -19.906 -27.791   3.419  0.00  0.00    +0.005 C 
ATOM     14  C12 UNL     1     -21.340 -27.990   3.913  0.00  0.00    +0.038 C 
ENDROOT
BRANCH   1  16
ATOM     15  O1  UNL     1     -23.929 -35.102   3.888  0.00  0.00    -0.143 OA
ATOM     16  N1  UNL     1     -24.187 -34.027   3.310  0.00  0.00    -0.025 NA
ENDBRANCH   1  16
BRANCH   4  17
ATOM     17  N2  UNL     1     -23.733 -29.035   5.304  0.00  0.00    -0.128 N 
BRANCH  17  18
ATOM     18  O2  UNL     1     -25.001 -28.619   5.069  0.00  0.00    -0.262 OA
ATOM     19  H2  UNL     1     -25.577 -29.338   5.436  0.00  0.00    +0.247 HD
ENDBRANCH  17  18
BRANCH  17  20
ATOM     20  O3  UNL     1     -23.146 -28.707   6.482  0.00  0.00    -0.262 OA
ATOM     21  H3  UNL     1     -23.438 -29.409   7.118  0.00  0.00    +0.247 HD
ENDBRANCH  17  20
ENDBRANCH   4  17
TORSDOF 4
ENDMDL
MODEL 9
REMARK minimizedAffinity -5.29142475
REMARK minimizedRMSD -1
REMARK  Name = /home/tchapet/Post-Doc/ARTICLES-DOSSIERS-DES-ARTICLES-EN-REDACTION/NOUVELS-AXES-DE-RECHERCHE-A-REGARDER-URGEMMENT/ARTICLES-EN-REDACTIONS/ARTICLE_MVOTO/Paper2_Sensors_ActuatorsB/docking_rerun/ligands/4550.pdb
REMARK  4 active torsions:
REMARK  status: ('A' for Active; 'I' for Inactive)
REMARK    1  A    between atoms: N1_2  and  C1_3
REMARK    2  A    between atoms: C4_6  and  N2_7
REMARK    3  A    between atoms: N2_7  and  O2_8
REMARK    4  A    between atoms: N2_7  and  O3_9
REMARK                            x       y       z     vdW  Elec       q    Type
REMARK                         _______ _______ _______ _____ _____    ______ ____
ROOT
ATOM      1  C1  UNL     1      -0.869 -10.598   3.394  0.00  0.00    +0.180 C 
ATOM      2  C2  UNL     1      -0.422  -9.520   4.012  0.00  0.00    +0.034 A 
ATOM      3  C3  UNL     1      -0.195  -9.321   5.368  0.00  0.00    +0.043 A 
ATOM      4  C4  UNL     1       0.287  -8.071   5.803  0.00  0.00    +0.099 A 
ATOM      5  C5  UNL     1       0.577  -7.046   4.846  0.00  0.00    -0.014 A 
ATOM      6  C6  UNL     1       0.303  -7.270   3.462  0.00  0.00    -0.018 A 
ATOM      7  C7  UNL     1      -0.184  -8.525   3.077  0.00  0.00    +0.070 A 
ATOM      8  N3  UNL     1      -0.446  -8.887   1.856  0.00  0.00    -0.174 NA
ATOM      9  C8  UNL     1      -0.899 -10.230   1.993  0.00  0.00    +0.290 C 
ATOM     10  O4  UNL     1      -1.260 -10.958   1.033  0.00  0.00    -0.266 OA
ATOM     11  C9  UNL     1       0.628  -6.242   2.398  0.00  0.00    +0.037 C 
ATOM     12  C10 UNL     1       0.842  -4.842   2.971  0.00  0.00    +0.005 C 
ATOM     13  C11 UNL     1       1.780  -4.905   4.171  0.00  0.00    +0.005 C 
ATOM     14  C12 UNL     1       1.137  -5.710   5.302  0.00  0.00    +0.038 C 
ENDROOT
BRANCH   1  16
ATOM     15  O1  UNL     1      -0.472 -12.830   3.930  0.00  0.00    -0.143 OA
ATOM     16  N1  UNL     1      -1.231 -11.842   3.996  0.00  0.00    -0.025 NA
ENDBRANCH   1  16
BRANCH   4  17
ATOM     17  N2  UNL     1       0.476  -7.866   7.217  0.00  0.00    -0.128 N 
BRANCH  17  18
ATOM     18  O2  UNL     1      -0.533  -7.407   7.998  0.00  0.00    -0.262 OA
ATOM     19  H2  UNL     1      -1.015  -8.221   8.294  0.00  0.00    +0.247 HD
ENDBRANCH  17  18
BRANCH  17  20
ATOM     20  O3  UNL     1       1.659  -8.182   7.799  0.00  0.00    -0.262 OA
ATOM     21  H3  UNL     1       1.549  -9.116   8.113  0.00  0.00    +0.247 HD
ENDBRANCH  17  20
ENDBRANCH   4  17
TORSDOF 4
ENDMDL
