MODEL 1
REMARK minimizedAffinity -5.82768774
REMARK minimizedRMSD -1
REMARK  Name = /home/tchapet/Post-Doc/ARTICLES-DOSSIERS-DES-ARTICLES-EN-REDACTION/NOUVELS-AXES-DE-RECHERCHE-A-REGARDER-URGEMMENT/ARTICLES-EN-REDACTIONS/ARTICLE_MVOTO/Paper2_Sensors_ActuatorsB/docking_rerun/ligands/4550.pdb
REMARK  4 active torsions:
REMARK  status: ('A' for Active; 'I' for Inactive)
REMARK    1  A    between atoms: N1_2  and  C1_3
REMARK    2  A    between atoms: C4_6  and  N2_7
REMARK    3  A    between atoms: N2_7  and  O2_8
REMARK    4  A    between atoms: N2_7  and  O3_9
REMARK                            x       y       z     vdW  Elec       q    Type
REMARK                         _______ _______ _______ _____ _____    ______ ____
ROOT
ATOM      1  C1  UNL     1      31.318 -17.931  11.606  0.00  0.00    +0.180 C 
ATOM      2  C2  UNL     1      30.328 -17.321  10.979  0.00  0.00    +0.034 A 
ATOM      3  C3  UNL     1      29.169 -16.768  11.507  0.00  0.00    +0.043 A 
ATOM      4  C4  UNL     1      28.242 -16.164  10.635  0.00  0.00    +0.099 A 
ATOM      5  C5  UNL     1      28.526 -16.089   9.233  0.00  0.00    -0.014 A 
ATOM      6  C6  UNL     1      29.712 -16.695   8.717  0.00  0.00    -0.018 A 
ATOM      7  C7  UNL     1      30.600 -17.291   9.620  0.00  0.00    +0.070 A 
ATOM      8  N3  UNL     1      31.731 -17.849   9.305  0.00  0.00    -0.174 NA
ATOM      9  C8  UNL     1      32.250 -18.289  10.556  0.00  0.00    +0.290 C 
ATOM     10  O4  UNL     1      33.346 -18.890  10.697  0.00  0.00    -0.266 OA
ATOM     11  C9  UNL     1      30.089 -16.611   7.253  0.00  0.00    +0.037 C 
ATOM     12  C10 UNL     1      28.911 -16.230   6.357  0.00  0.00    +0.005 C 
ATOM     13  C11 UNL     1      28.173 -15.032   6.943  0.00  0.00    +0.005 C 
ATOM     14  C12 UNL     1      27.553 -15.402   8.292  0.00  0.00    +0.038 C 
ENDROOT
BRANCH   1  16
ATOM     15  O1  UNL     1      30.942 -19.194  13.526  0.00  0.00    -0.143 OA
ATOM     16  N1  UNL     1      31.426 -18.167  13.010  0.00  0.00    -0.025 NA
ENDBRANCH   1  16
BRANCH   4  17
ATOM     17  N2  UNL     1      27.023 -15.634  11.193  0.00  0.00    -0.128 N 
BRANCH  17  18
ATOM     18  O2  UNL     1      25.817 -16.156  10.860  0.00  0.00    -0.262 OA
ATOM     19  H2  UNL     1      25.667 -16.886  11.514  0.00  0.00    +0.247 HD
ENDBRANCH  17  18
BRANCH  17  20
ATOM     20  O3  UNL     1      27.072 -14.633  12.106  0.00  0.00    -0.262 OA
ATOM     21  H3  UNL     1      27.085 -15.090  12.986  0.00  0.00    +0.247 HD
ENDBRANCH  17  20
ENDBRANCH   4  17
TORSDOF 4
ENDMDL
MODEL 2
REMARK minimizedAffinity -5.82387686
REMARK minimizedRMSD -1
REMARK  Name = /home/tchapet/Post-Doc/ARTICLES-DOSSIERS-DES-ARTICLES-EN-REDACTION/NOUVELS-AXES-DE-RECHERCHE-A-REGARDER-URGEMMENT/ARTICLES-EN-REDACTIONS/ARTICLE_MVOTO/Paper2_Sensors_ActuatorsB/docking_rerun/ligands/4550.pdb
REMARK  4 active torsions:
REMARK  status: ('A' for Active; 'I' for Inactive)
REMARK    1  A    between atoms: N1_2  and  C1_3
REMARK    2  A    between atoms: C4_6  and  N2_7
REMARK    3  A    between atoms: N2_7  and  O2_8
REMARK    4  A    between atoms: N2_7  and  O3_9
REMARK                            x       y       z     vdW  Elec       q    Type
REMARK                         _______ _______ _______ _____ _____    ______ ____
ROOT
ATOM      1  C1  UNL     1      12.156 -15.217  -5.132  0.00  0.00    +0.180 C 
ATOM      2  C2  UNL     1      12.445 -14.671  -3.964  0.00  0.00    +0.034 A 
ATOM      3  C3  UNL     1      11.923 -14.963  -2.711  0.00  0.00    +0.043 A 
ATOM      4  C4  UNL     1      12.385 -14.241  -1.594  0.00  0.00    +0.099 A 
ATOM      5  C5  UNL     1      13.411 -13.254  -1.757  0.00  0.00    -0.014 A 
ATOM      6  C6  UNL     1      13.904 -12.955  -3.063  0.00  0.00    -0.018 A 
ATOM      7  C7  UNL     1      13.409 -13.693  -4.146  0.00  0.00    +0.070 A 
ATOM      8  N3  UNL     1      13.787 -13.559  -5.382  0.00  0.00    -0.174 NA
ATOM      9  C8  UNL     1      13.006 -14.524  -6.079  0.00  0.00    +0.290 C 
ATOM     10  O4  UNL     1      13.065 -14.722  -7.320  0.00  0.00    -0.266 OA
ATOM     11  C9  UNL     1      15.018 -11.955  -3.295  0.00  0.00    +0.037 C 
ATOM     12  C10 UNL     1      15.231 -11.017  -2.108  0.00  0.00    +0.005 C 
ATOM     13  C11 UNL     1      15.289 -11.817  -0.812  0.00  0.00    +0.005 C 
ATOM     14  C12 UNL     1      13.945 -12.501  -0.552  0.00  0.00    +0.038 C 
ENDROOT
BRANCH   1  16
ATOM     15  O1  UNL     1      11.534 -17.459  -5.236  0.00  0.00    -0.143 OA
ATOM     16  N1  UNL     1      11.215 -16.262  -5.380  0.00  0.00    -0.025 NA
ENDBRANCH   1  16
BRANCH   4  17
ATOM     17  N2  UNL     1      11.802 -14.525  -0.306  0.00  0.00    -0.128 N 
BRANCH  17  18
ATOM     18  O2  UNL     1      10.536 -14.141  -0.013  0.00  0.00    -0.262 OA
ATOM     19  H2  UNL     1       9.966 -14.896  -0.312  0.00  0.00    +0.247 HD
ENDBRANCH  17  18
BRANCH  17  20
ATOM     20  O3  UNL     1      12.501 -15.232   0.616  0.00  0.00    -0.262 OA
ATOM     21  H3  UNL     1      12.237 -16.176   0.469  0.00  0.00    +0.247 HD
ENDBRANCH  17  20
ENDBRANCH   4  17
TORSDOF 4
ENDMDL
MODEL 3
REMARK minimizedAffinity -5.57925415
REMARK minimizedRMSD -1
REMARK  Name = /home/tchapet/Post-Doc/ARTICLES-DOSSIERS-DES-ARTICLES-EN-REDACTION/NOUVELS-AXES-DE-RECHERCHE-A-REGARDER-URGEMMENT/ARTICLES-EN-REDACTIONS/ARTICLE_MVOTO/Paper2_Sensors_ActuatorsB/docking_rerun/ligands/4550.pdb
REMARK  4 active torsions:
REMARK  status: ('A' for Active; 'I' for Inactive)
REMARK    1  A    between atoms: N1_2  and  C1_3
REMARK    2  A    between atoms: C4_6  and  N2_7
REMARK    3  A    between atoms: N2_7  and  O2_8
REMARK    4  A    between atoms: N2_7  and  O3_9
REMARK                            x       y       z     vdW  Elec       q    Type
REMARK                         _______ _______ _______ _____ _____    ______ ____
ROOT
ATOM      1  C1  UNL     1       7.942 -11.765  28.415  0.00  0.00    +0.180 C 
ATOM      2  C2  UNL     1       7.274 -12.722  27.798  0.00  0.00    +0.034 A 
ATOM      3  C3  UNL     1       5.902 -12.929  27.734  0.00  0.00    +0.043 A 
ATOM      4  C4  UNL     1       5.411 -14.033  27.010  0.00  0.00    +0.099 A 
ATOM      5  C5  UNL     1       6.323 -14.895  26.319  0.00  0.00    -0.014 A 
ATOM      6  C6  UNL     1       7.729 -14.675  26.430  0.00  0.00    -0.018 A 
ATOM      7  C7  UNL     1       8.172 -13.569  27.167  0.00  0.00    +0.070 A 
ATOM      8  N3  UNL     1       9.414 -13.222  27.327  0.00  0.00    -0.174 NA
ATOM      9  C8  UNL     1       9.335 -12.051  28.134  0.00  0.00    +0.290 C 
ATOM     10  O4  UNL     1      10.331 -11.391  28.526  0.00  0.00    -0.266 OA
ATOM     11  C9  UNL     1       8.740 -15.524  25.688  0.00  0.00    +0.037 C 
ATOM     12  C10 UNL     1       8.158 -16.850  25.200  0.00  0.00    +0.005 C 
ATOM     13  C11 UNL     1       6.822 -16.612  24.505  0.00  0.00    +0.005 C 
ATOM     14  C12 UNL     1       5.799 -16.062  25.501  0.00  0.00    +0.038 C 
ENDROOT
BRANCH   1  16
ATOM     15  O1  UNL     1       7.072  -9.616  28.635  0.00  0.00    -0.143 OA
ATOM     16  N1  UNL     1       7.391 -10.692  29.179  0.00  0.00    -0.025 NA
ENDBRANCH   1  16
BRANCH   4  17
ATOM     17  N2  UNL     1       3.988 -14.259  26.990  0.00  0.00    -0.128 N 
BRANCH  17  18
ATOM     18  O2  UNL     1       3.312 -14.563  28.125  0.00  0.00    -0.262 OA
ATOM     19  H2  UNL     1       3.054 -13.686  28.510  0.00  0.00    +0.247 HD
ENDBRANCH  17  18
BRANCH  17  20
ATOM     20  O3  UNL     1       3.292 -14.117  25.835  0.00  0.00    -0.262 OA
ATOM     21  H3  UNL     1       2.980 -13.176  25.838  0.00  0.00    +0.247 HD
ENDBRANCH  17  20
ENDBRANCH   4  17
TORSDOF 4
ENDMDL
MODEL 4
REMARK minimizedAffinity -5.54661894
REMARK minimizedRMSD -1
REMARK  Name = /home/tchapet/Post-Doc/ARTICLES-DOSSIERS-DES-ARTICLES-EN-REDACTION/NOUVELS-AXES-DE-RECHERCHE-A-REGARDER-URGEMMENT/ARTICLES-EN-REDACTIONS/ARTICLE_MVOTO/Paper2_Sensors_ActuatorsB/docking_rerun/ligands/4550.pdb
REMARK  4 active torsions:
REMARK  status: ('A' for Active; 'I' for Inactive)
REMARK    1  A    between atoms: N1_2  and  C1_3
REMARK    2  A    between atoms: C4_6  and  N2_7
REMARK    3  A    between atoms: N2_7  and  O2_8
REMARK    4  A    between atoms: N2_7  and  O3_9
REMARK                            x       y       z     vdW  Elec       q    Type
REMARK                         _______ _______ _______ _____ _____    ______ ____
ROOT
ATOM      1  C1  UNL     1       2.820  -1.947   1.025  0.00  0.00    +0.180 C 
ATOM      2  C2  UNL     1       1.545  -1.865   1.359  0.00  0.00    +0.034 A 
ATOM      3  C3  UNL     1       0.669  -0.799   1.207  0.00  0.00    +0.043 A 
ATOM      4  C4  UNL     1      -0.663  -0.941   1.646  0.00  0.00    +0.099 A 
ATOM      5  C5  UNL     1      -1.102  -2.187   2.198  0.00  0.00    -0.014 A 
ATOM      6  C6  UNL     1      -0.169  -3.254   2.371  0.00  0.00    -0.018 A 
ATOM      7  C7  UNL     1       1.146  -3.065   1.928  0.00  0.00    +0.070 A 
ATOM      8  N3  UNL     1       2.093  -3.953   1.986  0.00  0.00    -0.174 NA
ATOM      9  C8  UNL     1       3.214  -3.287   1.413  0.00  0.00    +0.290 C 
ATOM     10  O4  UNL     1       4.353  -3.803   1.278  0.00  0.00    -0.266 OA
ATOM     11  C9  UNL     1      -0.583  -4.608   2.908  0.00  0.00    +0.037 C 
ATOM     12  C10 UNL     1      -1.927  -4.574   3.634  0.00  0.00    +0.005 C 
ATOM     13  C11 UNL     1      -2.957  -3.827   2.795  0.00  0.00    +0.005 C 
ATOM     14  C12 UNL     1      -2.546  -2.362   2.635  0.00  0.00    +0.038 C 
ENDROOT
BRANCH   1  16
ATOM     15  O1  UNL     1       3.635  -0.797  -0.829  0.00  0.00    -0.143 OA
ATOM     16  N1  UNL     1       3.611  -0.929   0.411  0.00  0.00    -0.025 NA
ENDBRANCH   1  16
BRANCH   4  17
ATOM     17  N2  UNL     1      -1.548   0.190   1.521  0.00  0.00    -0.128 N 
BRANCH  17  18
ATOM     18  O2  UNL     1      -1.650   1.111   2.511  0.00  0.00    -0.262 OA
ATOM     19  H2  UNL     1      -0.948   1.781   2.307  0.00  0.00    +0.247 HD
ENDBRANCH  17  18
BRANCH  17  20
ATOM     20  O3  UNL     1      -2.256   0.377   0.380  0.00  0.00    -0.262 OA
ATOM     21  H3  UNL     1      -1.688   0.965  -0.181  0.00  0.00    +0.247 HD
ENDBRANCH  17  20
ENDBRANCH   4  17
TORSDOF 4
ENDMDL
MODEL 5
REMARK minimizedAffinity -5.52263594
REMARK minimizedRMSD -1
REMARK  Name = /home/tchapet/Post-Doc/ARTICLES-DOSSIERS-DES-ARTICLES-EN-REDACTION/NOUVELS-AXES-DE-RECHERCHE-A-REGARDER-URGEMMENT/ARTICLES-EN-REDACTIONS/ARTICLE_MVOTO/Paper2_Sensors_ActuatorsB/docking_rerun/ligands/4550.pdb
REMARK  4 active torsions:
REMARK  status: ('A' for Active; 'I' for Inactive)
REMARK    1  A    between atoms: N1_2  and  C1_3
REMARK    2  A    between atoms: C4_6  and  N2_7
REMARK    3  A    between atoms: N2_7  and  O2_8
REMARK    4  A    between atoms: N2_7  and  O3_9
REMARK                            x       y       z     vdW  Elec       q    Type
REMARK                         _______ _______ _______ _____ _____    ______ ____
ROOT
ATOM      1  C1  UNL     1       4.674  -2.168   0.245  0.00  0.00    +0.180 C 
ATOM      2  C2  UNL     1       3.473  -1.968   0.757  0.00  0.00    +0.034 A 
ATOM      3  C3  UNL     1       2.777  -0.776   0.912  0.00  0.00    +0.043 A 
ATOM      4  C4  UNL     1       1.494  -0.805   1.494  0.00  0.00    +0.099 A 
ATOM      5  C5  UNL     1       0.912  -2.057   1.875  0.00  0.00    -0.014 A 
ATOM      6  C6  UNL     1       1.666  -3.262   1.732  0.00  0.00    -0.018 A 
ATOM      7  C7  UNL     1       2.940  -3.183   1.156  0.00  0.00    +0.070 A 
ATOM      8  N3  UNL     1       3.726  -4.194   0.930  0.00  0.00    -0.174 NA
ATOM      9  C8  UNL     1       4.876  -3.600   0.338  0.00  0.00    +0.290 C 
ATOM     10  O4  UNL     1       5.892  -4.240  -0.037  0.00  0.00    -0.266 OA
ATOM     11  C9  UNL     1       1.089  -4.619   2.075  0.00  0.00    +0.037 C 
ATOM     12  C10 UNL     1      -0.147  -4.532   2.969  0.00  0.00    +0.005 C 
ATOM     13  C11 UNL     1      -1.119  -3.494   2.419  0.00  0.00    +0.005 C 
ATOM     14  C12 UNL     1      -0.487  -2.102   2.464  0.00  0.00    +0.038 C 
ENDROOT
BRANCH   1  16
ATOM     15  O1  UNL     1       6.675  -0.976   0.232  0.00  0.00    -0.143 OA
ATOM     16  N1  UNL     1       5.556  -1.176  -0.282  0.00  0.00    -0.025 NA
ENDBRANCH   1  16
BRANCH   4  17
ATOM     17  N2  UNL     1       0.803   0.445   1.689  0.00  0.00    -0.128 N 
BRANCH  17  18
ATOM     18  O2  UNL     1      -0.389   0.685   1.089  0.00  0.00    -0.262 OA
ATOM     19  H2  UNL     1      -1.067   0.340   1.724  0.00  0.00    +0.247 HD
ENDBRANCH  17  18
BRANCH  17  20
ATOM     20  O3  UNL     1       1.315   1.383   2.524  0.00  0.00    -0.262 OA
ATOM     21  H3  UNL     1       0.895   1.200   3.403  0.00  0.00    +0.247 HD
ENDBRANCH  17  20
ENDBRANCH   4  17
TORSDOF 4
ENDMDL
MODEL 6
REMARK minimizedAffinity -5.43886185
REMARK minimizedRMSD -1
REMARK  Name = /home/tchapet/Post-Doc/ARTICLES-DOSSIERS-DES-ARTICLES-EN-REDACTION/NOUVELS-AXES-DE-RECHERCHE-A-REGARDER-URGEMMENT/ARTICLES-EN-REDACTIONS/ARTICLE_MVOTO/Paper2_Sensors_ActuatorsB/docking_rerun/ligands/4550.pdb
REMARK  4 active torsions:
REMARK  status: ('A' for Active; 'I' for Inactive)
REMARK    1  A    between atoms: N1_2  and  C1_3
REMARK    2  A    between atoms: C4_6  and  N2_7
REMARK    3  A    between atoms: N2_7  and  O2_8
REMARK    4  A    between atoms: N2_7  and  O3_9
REMARK                            x       y       z     vdW  Elec       q    Type
REMARK                         _______ _______ _______ _____ _____    ______ ____
ROOT
ATOM      1  C1  UNL     1      -4.328 -15.358  18.567  0.00  0.00    +0.180 C 
ATOM      2  C2  UNL     1      -3.143 -14.776  18.547  0.00  0.00    +0.034 A 
ATOM      3  C3  UNL     1      -1.927 -15.252  19.021  0.00  0.00    +0.043 A 
ATOM      4  C4  UNL     1      -0.780 -14.445  18.892  0.00  0.00    +0.099 A 
ATOM      5  C5  UNL     1      -0.873 -13.173  18.239  0.00  0.00    -0.014 A 
ATOM      6  C6  UNL     1      -2.143 -12.697  17.791  0.00  0.00    -0.018 A 
ATOM      7  C7  UNL     1      -3.257 -13.531  17.948  0.00  0.00    +0.070 A 
ATOM      8  N3  UNL     1      -4.466 -13.251  17.559  0.00  0.00    -0.174 NA
ATOM      9  C8  UNL     1      -5.215 -14.402  17.935  0.00  0.00    +0.290 C 
ATOM     10  O4  UNL     1      -6.450 -14.541  17.737  0.00  0.00    -0.266 OA
ATOM     11  C9  UNL     1      -2.298 -11.382  17.056  0.00  0.00    +0.037 C 
ATOM     12  C10 UNL     1      -1.097 -10.455  17.237  0.00  0.00    +0.005 C 
ATOM     13  C11 UNL     1       0.198 -11.223  17.000  0.00  0.00    +0.005 C 
ATOM     14  C12 UNL     1       0.366 -12.315  18.058  0.00  0.00    +0.038 C 
ENDROOT
BRANCH   1  16
ATOM     15  O1  UNL     1      -4.869 -16.803  20.312  0.00  0.00    -0.143 OA
ATOM     16  N1  UNL     1      -4.640 -16.647  19.096  0.00  0.00    -0.025 NA
ENDBRANCH   1  16
BRANCH   4  17
ATOM     17  N2  UNL     1       0.465 -14.934  19.428  0.00  0.00    -0.128 N 
BRANCH  17  18
ATOM     18  O2  UNL     1       0.843 -14.642  20.697  0.00  0.00    -0.262 OA
ATOM     19  H2  UNL     1       0.449 -15.364  21.251  0.00  0.00    +0.247 HD
ENDBRANCH  17  18
BRANCH  17  20
ATOM     20  O3  UNL     1       1.255 -15.745  18.682  0.00  0.00    -0.262 OA
ATOM     21  H3  UNL     1       0.976 -16.666  18.921  0.00  0.00    +0.247 HD
ENDBRANCH  17  20
ENDBRANCH   4  17
TORSDOF 4
ENDMDL
MODEL 7
REMARK minimizedAffinity -5.42166662
REMARK minimizedRMSD -1
REMARK  Name = /home/tchapet/Post-Doc/ARTICLES-DOSSIERS-DES-ARTICLES-EN-REDACTION/NOUVELS-AXES-DE-RECHERCHE-A-REGARDER-URGEMMENT/ARTICLES-EN-REDACTIONS/ARTICLE_MVOTO/Paper2_Sensors_ActuatorsB/docking_rerun/ligands/4550.pdb
REMARK  4 active torsions:
REMARK  status: ('A' for Active; 'I' for Inactive)
REMARK    1  A    between atoms: N1_2  and  C1_3
REMARK    2  A    between atoms: C4_6  and  N2_7
REMARK    3  A    between atoms: N2_7  and  O2_8
REMARK    4  A    between atoms: N2_7  and  O3_9
REMARK                            x       y       z     vdW  Elec       q    Type
REMARK                         _______ _______ _______ _____ _____    ______ ____
ROOT
ATOM      1  C1  UNL     1      -3.895 -16.088  16.026  0.00  0.00    +0.180 C 
ATOM      2  C2  UNL     1      -2.839 -15.302  15.920  0.00  0.00    +0.034 A 
ATOM      3  C3  UNL     1      -1.744 -15.421  15.075  0.00  0.00    +0.043 A 
ATOM      4  C4  UNL     1      -0.722 -14.452  15.141  0.00  0.00    +0.099 A 
ATOM      5  C5  UNL     1      -0.848 -13.344  16.041  0.00  0.00    -0.014 A 
ATOM      6  C6  UNL     1      -1.971 -13.268  16.919  0.00  0.00    -0.018 A 
ATOM      7  C7  UNL     1      -2.957 -14.258  16.824  0.00  0.00    +0.070 A 
ATOM      8  N3  UNL     1      -4.048 -14.302  17.529  0.00  0.00    -0.174 NA
ATOM      9  C8  UNL     1      -4.706 -15.474  17.059  0.00  0.00    +0.290 C 
ATOM     10  O4  UNL     1      -5.813 -15.887  17.489  0.00  0.00    -0.266 OA
ATOM     11  C9  UNL     1      -2.181 -12.100  17.860  0.00  0.00    +0.037 C 
ATOM     12  C10 UNL     1      -0.909 -11.285  18.090  0.00  0.00    +0.005 C 
ATOM     13  C11 UNL     1      -0.236 -10.978  16.757  0.00  0.00    +0.005 C 
ATOM     14  C12 UNL     1       0.228 -12.273  16.088  0.00  0.00    +0.038 C 
ENDROOT
BRANCH   1  16
ATOM     15  O1  UNL     1      -3.820 -18.393  15.702  0.00  0.00    -0.143 OA
ATOM     16  N1  UNL     1      -4.160 -17.272  15.274  0.00  0.00    -0.025 NA
ENDBRANCH   1  16
BRANCH   4  17
ATOM     17  N2  UNL     1       0.429 -14.613  14.289  0.00  0.00    -0.128 N 
BRANCH  17  18
ATOM     18  O2  UNL     1       1.371 -15.550  14.556  0.00  0.00    -0.262 OA
ATOM     19  H2  UNL     1       1.054 -16.368  14.093  0.00  0.00    +0.247 HD
ENDBRANCH  17  18
BRANCH  17  20
ATOM     20  O3  UNL     1       0.557 -13.858  13.170  0.00  0.00    -0.262 OA
ATOM     21  H3  UNL     1       0.148 -14.400  12.447  0.00  0.00    +0.247 HD
ENDBRANCH  17  20
ENDBRANCH   4  17
TORSDOF 4
ENDMDL
MODEL 8
REMARK minimizedAffinity -5.41552544
REMARK minimizedRMSD -1
REMARK  Name = /home/tchapet/Post-Doc/ARTICLES-DOSSIERS-DES-ARTICLES-EN-REDACTION/NOUVELS-AXES-DE-RECHERCHE-A-REGARDER-URGEMMENT/ARTICLES-EN-REDACTIONS/ARTICLE_MVOTO/Paper2_Sensors_ActuatorsB/docking_rerun/ligands/4550.pdb
REMARK  4 active torsions:
REMARK  status: ('A' for Active; 'I' for Inactive)
REMARK    1  A    between atoms: N1_2  and  C1_3
REMARK    2  A    between atoms: C4_6  and  N2_7
REMARK    3  A    between atoms: N2_7  and  O2_8
REMARK    4  A    between atoms: N2_7  and  O3_9
REMARK                            x       y       z     vdW  Elec       q    Type
REMARK                         _______ _______ _______ _____ _____    ______ ____
ROOT
ATOM      1  C1  UNL     1      10.824 -12.316  27.835  0.00  0.00    +0.180 C 
ATOM      2  C2  UNL     1       9.513 -12.482  27.813  0.00  0.00    +0.034 A 
ATOM      3  C3  UNL     1       8.525 -11.705  28.402  0.00  0.00    +0.043 A 
ATOM      4  C4  UNL     1       7.176 -12.082  28.246  0.00  0.00    +0.099 A 
ATOM      5  C5  UNL     1       6.843 -13.227  27.451  0.00  0.00    -0.014 A 
ATOM      6  C6  UNL     1       7.884 -14.024  26.886  0.00  0.00    -0.018 A 
ATOM      7  C7  UNL     1       9.211 -13.615  27.075  0.00  0.00    +0.070 A 
ATOM      8  N3  UNL     1      10.258 -14.216  26.593  0.00  0.00    -0.174 NA
ATOM      9  C8  UNL     1      11.345 -13.420  27.054  0.00  0.00    +0.290 C 
ATOM     10  O4  UNL     1      12.555 -13.659  26.806  0.00  0.00    -0.266 OA
ATOM     11  C9  UNL     1       7.596 -15.218  26.001  0.00  0.00    +0.037 C 
ATOM     12  C10 UNL     1       6.162 -15.729  26.141  0.00  0.00    +0.005 C 
ATOM     13  C11 UNL     1       5.182 -14.565  26.061  0.00  0.00    +0.005 C 
ATOM     14  C12 UNL     1       5.391 -13.615  27.242  0.00  0.00    +0.038 C 
ENDROOT
BRANCH   1  16
ATOM     15  O1  UNL     1      12.017 -11.431  29.629  0.00  0.00    -0.143 OA
ATOM     16  N1  UNL     1      11.543 -11.269  28.487  0.00  0.00    -0.025 NA
ENDBRANCH   1  16
BRANCH   4  17
ATOM     17  N2  UNL     1       6.164 -11.290  28.899  0.00  0.00    -0.128 N 
BRANCH  17  18
ATOM     18  O2  UNL     1       5.561 -10.259  28.259  0.00  0.00    -0.262 OA
ATOM     19  H2  UNL     1       4.785 -10.667  27.797  0.00  0.00    +0.247 HD
ENDBRANCH  17  18
BRANCH  17  20
ATOM     20  O3  UNL     1       5.762 -11.604  30.156  0.00  0.00    -0.262 OA
ATOM     21  H3  UNL     1       4.983 -12.204  30.033  0.00  0.00    +0.247 HD
ENDBRANCH  17  20
ENDBRANCH   4  17
TORSDOF 4
ENDMDL
MODEL 9
REMARK minimizedAffinity -5.40882778
REMARK minimizedRMSD -1
REMARK  Name = /home/tchapet/Post-Doc/ARTICLES-DOSSIERS-DES-ARTICLES-EN-REDACTION/NOUVELS-AXES-DE-RECHERCHE-A-REGARDER-URGEMMENT/ARTICLES-EN-REDACTIONS/ARTICLE_MVOTO/Paper2_Sensors_ActuatorsB/docking_rerun/ligands/4550.pdb
REMARK  4 active torsions:
REMARK  status: ('A' for Active; 'I' for Inactive)
REMARK    1  A    between atoms: N1_2  and  C1_3
REMARK    2  A    between atoms: C4_6  and  N2_7
REMARK    3  A    between atoms: N2_7  and  O2_8
REMARK    4  A    between atoms: N2_7  and  O3_9
REMARK                            x       y       z     vdW  Elec       q    Type
REMARK                         _______ _______ _______ _____ _____    ______ ____
ROOT
ATOM      1  C1  UNL     1      -9.535   3.409  17.466  0.00  0.00    +0.180 C 
ATOM      2  C2  UNL     1      -8.877   4.544  17.311  0.00  0.00    +0.034 A 
ATOM      3  C3  UNL     1      -8.366   5.105  16.148  0.00  0.00    +0.043 A 
ATOM      4  C4  UNL     1      -7.689   6.338  16.225  0.00  0.00    +0.099 A 
ATOM      5  C5  UNL     1      -7.577   7.013  17.484  0.00  0.00    -0.014 A 
ATOM      6  C6  UNL     1      -8.086   6.395  18.667  0.00  0.00    -0.018 A 
ATOM      7  C7  UNL     1      -8.744   5.164  18.543  0.00  0.00    +0.070 A 
ATOM      8  N3  UNL     1      -9.287   4.501  19.520  0.00  0.00    -0.174 NA
ATOM      9  C8  UNL     1      -9.821   3.344  18.885  0.00  0.00    +0.290 C 
ATOM     10  O4  UNL     1     -10.439   2.426  19.485  0.00  0.00    -0.266 OA
ATOM     11  C9  UNL     1      -8.037   7.076  20.018  0.00  0.00    +0.037 C 
ATOM     12  C10 UNL     1      -7.035   8.229  20.066  0.00  0.00    +0.005 C 
ATOM     13  C11 UNL     1      -7.215   9.131  18.850  0.00  0.00    +0.005 C 
ATOM     14  C12 UNL     1      -6.887   8.362  17.569  0.00  0.00    +0.038 C 
ENDROOT
BRANCH   1  16
ATOM     15  O1  UNL     1     -11.075   2.253  16.156  0.00  0.00    -0.143 OA
ATOM     16  N1  UNL     1      -9.882   2.474  16.444  0.00  0.00    -0.025 NA
ENDBRANCH   1  16
BRANCH   4  17
ATOM     17  N2  UNL     1      -7.125   6.886  15.017  0.00  0.00    -0.128 N 
BRANCH  17  18
ATOM     18  O2  UNL     1      -7.826   7.757  14.251  0.00  0.00    -0.262 OA
ATOM     19  H2  UNL     1      -7.613   8.651  14.622  0.00  0.00    +0.247 HD
ENDBRANCH  17  18
BRANCH  17  20
ATOM     20  O3  UNL     1      -5.855   6.575  14.657  0.00  0.00    -0.262 OA
ATOM     21  H3  UNL     1      -5.294   7.292  15.051  0.00  0.00    +0.247 HD
ENDBRANCH  17  20
ENDBRANCH   4  17
TORSDOF 4
ENDMDL
