MODEL 1
REMARK minimizedAffinity -6.36098194
REMARK minimizedRMSD -1
REMARK  Name = /home/tchapet/Post-Doc/ARTICLES-DOSSIERS-DES-ARTICLES-EN-REDACTION/NOUVELS-AXES-DE-RECHERCHE-A-REGARDER-URGEMMENT/ARTICLES-EN-REDACTIONS/ARTICLE_MVOTO/Paper2_Sensors_ActuatorsB/docking_rerun/ligands/4550.pdb
REMARK  4 active torsions:
REMARK  status: ('A' for Active; 'I' for Inactive)
REMARK    1  A    between atoms: N1_2  and  C1_3
REMARK    2  A    between atoms: C4_6  and  N2_7
REMARK    3  A    between atoms: N2_7  and  O2_8
REMARK    4  A    between atoms: N2_7  and  O3_9
REMARK                            x       y       z     vdW  Elec       q    Type
REMARK                         _______ _______ _______ _____ _____    ______ ____
ROOT
ATOM      1  C1  UNL     1      -9.712  37.069  23.487  0.00  0.00    +0.180 C 
ATOM      2  C2  UNL     1      -9.018  36.689  24.545  0.00  0.00    +0.034 A 
ATOM      3  C3  UNL     1      -8.493  35.438  24.842  0.00  0.00    +0.043 A 
ATOM      4  C4  UNL     1      -7.781  35.265  26.046  0.00  0.00    +0.099 A 
ATOM      5  C5  UNL     1      -7.572  36.383  26.918  0.00  0.00    -0.014 A 
ATOM      6  C6  UNL     1      -8.152  37.648  26.599  0.00  0.00    -0.018 A 
ATOM      7  C7  UNL     1      -8.858  37.771  25.396  0.00  0.00    +0.070 A 
ATOM      8  N3  UNL     1      -9.409  38.863  24.957  0.00  0.00    -0.174 NA
ATOM      9  C8  UNL     1      -9.986  38.474  23.714  0.00  0.00    +0.290 C 
ATOM     10  O4  UNL     1     -10.624  39.247  22.955  0.00  0.00    -0.266 OA
ATOM     11  C9  UNL     1      -7.930  38.876  27.458  0.00  0.00    +0.037 C 
ATOM     12  C10 UNL     1      -7.432  38.537  28.862  0.00  0.00    +0.005 C 
ATOM     13  C11 UNL     1      -6.282  37.540  28.783  0.00  0.00    +0.005 C 
ATOM     14  C12 UNL     1      -6.770  36.214  28.196  0.00  0.00    +0.038 C 
ENDROOT
BRANCH   1  16
ATOM     15  O1  UNL     1      -9.770  36.573  21.212  0.00  0.00    -0.143 OA
ATOM     16  N1  UNL     1     -10.091  36.257  22.375  0.00  0.00    -0.025 NA
ENDBRANCH   1  16
BRANCH   4  17
ATOM     17  N2  UNL     1      -7.280  33.951  26.361  0.00  0.00    -0.128 N 
BRANCH  17  18
ATOM     18  O2  UNL     1      -6.204  33.439  25.714  0.00  0.00    -0.262 OA
ATOM     19  H2  UNL     1      -5.423  33.741  26.244  0.00  0.00    +0.247 HD
ENDBRANCH  17  18
BRANCH  17  20
ATOM     20  O3  UNL     1      -7.852  33.225  27.354  0.00  0.00    -0.262 OA
ATOM     21  H3  UNL     1      -7.326  33.444  28.166  0.00  0.00    +0.247 HD
ENDBRANCH  17  20
ENDBRANCH   4  17
TORSDOF 4
ENDMDL
MODEL 2
REMARK minimizedAffinity -6.33359146
REMARK minimizedRMSD -1
REMARK  Name = /home/tchapet/Post-Doc/ARTICLES-DOSSIERS-DES-ARTICLES-EN-REDACTION/NOUVELS-AXES-DE-RECHERCHE-A-REGARDER-URGEMMENT/ARTICLES-EN-REDACTIONS/ARTICLE_MVOTO/Paper2_Sensors_ActuatorsB/docking_rerun/ligands/4550.pdb
REMARK  4 active torsions:
REMARK  status: ('A' for Active; 'I' for Inactive)
REMARK    1  A    between atoms: N1_2  and  C1_3
REMARK    2  A    between atoms: C4_6  and  N2_7
REMARK    3  A    between atoms: N2_7  and  O2_8
REMARK    4  A    between atoms: N2_7  and  O3_9
REMARK                            x       y       z     vdW  Elec       q    Type
REMARK                         _______ _______ _______ _____ _____    ______ ____
ROOT
ATOM      1  C1  UNL     1     -16.769  24.269  43.389  0.00  0.00    +0.180 C 
ATOM      2  C2  UNL     1     -16.892  23.242  42.568  0.00  0.00    +0.034 A 
ATOM      3  C3  UNL     1     -17.652  23.136  41.410  0.00  0.00    +0.043 A 
ATOM      4  C4  UNL     1     -17.631  21.926  40.688  0.00  0.00    +0.099 A 
ATOM      5  C5  UNL     1     -16.800  20.846  41.131  0.00  0.00    -0.014 A 
ATOM      6  C6  UNL     1     -16.056  20.975  42.343  0.00  0.00    -0.018 A 
ATOM      7  C7  UNL     1     -16.114  22.193  43.031  0.00  0.00    +0.070 A 
ATOM      8  N3  UNL     1     -15.466  22.470  44.124  0.00  0.00    -0.174 NA
ATOM      9  C8  UNL     1     -15.851  23.811  44.412  0.00  0.00    +0.290 C 
ATOM     10  O4  UNL     1     -15.443  24.468  45.404  0.00  0.00    -0.266 OA
ATOM     11  C9  UNL     1     -15.127  19.886  42.838  0.00  0.00    +0.037 C 
ATOM     12  C10 UNL     1     -15.400  18.531  42.189  0.00  0.00    +0.005 C 
ATOM     13  C11 UNL     1     -15.525  18.689  40.678  0.00  0.00    +0.005 C 
ATOM     14  C12 UNL     1     -16.739  19.554  40.336  0.00  0.00    +0.038 C 
ENDROOT
BRANCH   1  16
ATOM     15  O1  UNL     1     -16.735  26.595  43.268  0.00  0.00    -0.143 OA
ATOM     16  N1  UNL     1     -17.404  25.542  43.269  0.00  0.00    -0.025 NA
ENDBRANCH   1  16
BRANCH   4  17
ATOM     17  N2  UNL     1     -18.458  21.816  39.513  0.00  0.00    -0.128 N 
BRANCH  17  18
ATOM     18  O2  UNL     1     -19.574  21.046  39.513  0.00  0.00    -0.262 OA
ATOM     19  H2  UNL     1     -20.297  21.647  39.829  0.00  0.00    +0.247 HD
ENDBRANCH  17  18
BRANCH  17  20
ATOM     20  O3  UNL     1     -18.157  22.530  38.400  0.00  0.00    -0.262 OA
ATOM     21  H3  UNL     1     -18.674  23.371  38.488  0.00  0.00    +0.247 HD
ENDBRANCH  17  20
ENDBRANCH   4  17
TORSDOF 4
ENDMDL
MODEL 3
REMARK minimizedAffinity -6.10141802
REMARK minimizedRMSD -1
REMARK  Name = /home/tchapet/Post-Doc/ARTICLES-DOSSIERS-DES-ARTICLES-EN-REDACTION/NOUVELS-AXES-DE-RECHERCHE-A-REGARDER-URGEMMENT/ARTICLES-EN-REDACTIONS/ARTICLE_MVOTO/Paper2_Sensors_ActuatorsB/docking_rerun/ligands/4550.pdb
REMARK  4 active torsions:
REMARK  status: ('A' for Active; 'I' for Inactive)
REMARK    1  A    between atoms: N1_2  and  C1_3
REMARK    2  A    between atoms: C4_6  and  N2_7
REMARK    3  A    between atoms: N2_7  and  O2_8
REMARK    4  A    between atoms: N2_7  and  O3_9
REMARK                            x       y       z     vdW  Elec       q    Type
REMARK                         _______ _______ _______ _____ _____    ______ ____
ROOT
ATOM      1  C1  UNL     1     -12.944  25.391  11.803  0.00  0.00    +0.180 C 
ATOM      2  C2  UNL     1     -11.974  25.500  12.693  0.00  0.00    +0.034 A 
ATOM      3  C3  UNL     1     -11.819  26.439  13.705  0.00  0.00    +0.043 A 
ATOM      4  C4  UNL     1     -10.688  26.360  14.542  0.00  0.00    +0.099 A 
ATOM      5  C5  UNL     1      -9.745  25.296  14.368  0.00  0.00    -0.014 A 
ATOM      6  C6  UNL     1      -9.916  24.365  13.299  0.00  0.00    -0.018 A 
ATOM      7  C7  UNL     1     -11.050  24.488  12.487  0.00  0.00    +0.070 A 
ATOM      8  N3  UNL     1     -11.358  23.698  11.501  0.00  0.00    -0.174 NA
ATOM      9  C8  UNL     1     -12.583  24.233  11.010  0.00  0.00    +0.290 C 
ATOM     10  O4  UNL     1     -13.228  23.756  10.041  0.00  0.00    -0.266 OA
ATOM     11  C9  UNL     1      -8.978  23.195  13.090  0.00  0.00    +0.037 C 
ATOM     12  C10 UNL     1      -7.646  23.363  13.820  0.00  0.00    +0.005 C 
ATOM     13  C11 UNL     1      -7.890  23.797  15.261  0.00  0.00    +0.005 C 
ATOM     14  C12 UNL     1      -8.547  25.178  15.293  0.00  0.00    +0.038 C 
ENDROOT
BRANCH   1  16
ATOM     15  O1  UNL     1     -14.493  26.600  10.553  0.00  0.00    -0.143 OA
ATOM     16  N1  UNL     1     -14.088  26.236  11.675  0.00  0.00    -0.025 NA
ENDBRANCH   1  16
BRANCH   4  17
ATOM     17  N2  UNL     1     -10.519  27.367  15.560  0.00  0.00    -0.128 N 
BRANCH  17  18
ATOM     18  O2  UNL     1      -9.776  28.476  15.328  0.00  0.00    -0.262 OA
ATOM     19  H2  UNL     1     -10.412  29.132  14.943  0.00  0.00    +0.247 HD
ENDBRANCH  17  18
BRANCH  17  20
ATOM     20  O3  UNL     1     -11.150  27.241  16.753  0.00  0.00    -0.262 OA
ATOM     21  H3  UNL     1     -12.007  27.728  16.642  0.00  0.00    +0.247 HD
ENDBRANCH  17  20
ENDBRANCH   4  17
TORSDOF 4
ENDMDL
MODEL 4
REMARK minimizedAffinity -6.04970646
REMARK minimizedRMSD -1
REMARK  Name = /home/tchapet/Post-Doc/ARTICLES-DOSSIERS-DES-ARTICLES-EN-REDACTION/NOUVELS-AXES-DE-RECHERCHE-A-REGARDER-URGEMMENT/ARTICLES-EN-REDACTIONS/ARTICLE_MVOTO/Paper2_Sensors_ActuatorsB/docking_rerun/ligands/4550.pdb
REMARK  4 active torsions:
REMARK  status: ('A' for Active; 'I' for Inactive)
REMARK    1  A    between atoms: N1_2  and  C1_3
REMARK    2  A    between atoms: C4_6  and  N2_7
REMARK    3  A    between atoms: N2_7  and  O2_8
REMARK    4  A    between atoms: N2_7  and  O3_9
REMARK                            x       y       z     vdW  Elec       q    Type
REMARK                         _______ _______ _______ _____ _____    ______ ____
ROOT
ATOM      1  C1  UNL     1     -18.082   2.909   6.301  0.00  0.00    +0.180 C 
ATOM      2  C2  UNL     1     -17.827   2.998   7.594  0.00  0.00    +0.034 A 
ATOM      3  C3  UNL     1     -18.608   3.548   8.602  0.00  0.00    +0.043 A 
ATOM      4  C4  UNL     1     -18.124   3.533   9.925  0.00  0.00    +0.099 A 
ATOM      5  C5  UNL     1     -16.864   2.917  10.217  0.00  0.00    -0.014 A 
ATOM      6  C6  UNL     1     -16.071   2.389   9.154  0.00  0.00    -0.018 A 
ATOM      7  C7  UNL     1     -16.589   2.433   7.853  0.00  0.00    +0.070 A 
ATOM      8  N3  UNL     1     -16.000   1.962   6.794  0.00  0.00    -0.174 NA
ATOM      9  C8  UNL     1     -16.922   2.242   5.745  0.00  0.00    +0.290 C 
ATOM     10  O4  UNL     1     -16.733   1.946   4.537  0.00  0.00    -0.266 OA
ATOM     11  C9  UNL     1     -14.752   1.687   9.403  0.00  0.00    +0.037 C 
ATOM     12  C10 UNL     1     -14.170   1.989  10.783  0.00  0.00    +0.005 C 
ATOM     13  C11 UNL     1     -15.245   1.827  11.852  0.00  0.00    +0.005 C 
ATOM     14  C12 UNL     1     -16.355   2.859  11.646  0.00  0.00    +0.038 C 
ENDROOT
BRANCH   1  16
ATOM     15  O1  UNL     1     -19.451   4.588   5.446  0.00  0.00    -0.143 OA
ATOM     16  N1  UNL     1     -19.253   3.370   5.625  0.00  0.00    -0.025 NA
ENDBRANCH   1  16
BRANCH   4  17
ATOM     17  N2  UNL     1     -18.926   4.148  10.953  0.00  0.00    -0.128 N 
BRANCH  17  18
ATOM     18  O2  UNL     1     -18.908   5.489  11.147  0.00  0.00    -0.262 OA
ATOM     19  H2  UNL     1     -19.611   5.842  10.544  0.00  0.00    +0.247 HD
ENDBRANCH  17  18
BRANCH  17  20
ATOM     20  O3  UNL     1     -19.757   3.390  11.711  0.00  0.00    -0.262 OA
ATOM     21  H3  UNL     1     -20.629   3.417  11.241  0.00  0.00    +0.247 HD
ENDBRANCH  17  20
ENDBRANCH   4  17
TORSDOF 4
ENDMDL
MODEL 5
REMARK minimizedAffinity -6.01470661
REMARK minimizedRMSD -1
REMARK  Name = /home/tchapet/Post-Doc/ARTICLES-DOSSIERS-DES-ARTICLES-EN-REDACTION/NOUVELS-AXES-DE-RECHERCHE-A-REGARDER-URGEMMENT/ARTICLES-EN-REDACTIONS/ARTICLE_MVOTO/Paper2_Sensors_ActuatorsB/docking_rerun/ligands/4550.pdb
REMARK  4 active torsions:
REMARK  status: ('A' for Active; 'I' for Inactive)
REMARK    1  A    between atoms: N1_2  and  C1_3
REMARK    2  A    between atoms: C4_6  and  N2_7
REMARK    3  A    between atoms: N2_7  and  O2_8
REMARK    4  A    between atoms: N2_7  and  O3_9
REMARK                            x       y       z     vdW  Elec       q    Type
REMARK                         _______ _______ _______ _____ _____    ______ ____
ROOT
ATOM      1  C1  UNL     1     -18.055  21.242  40.174  0.00  0.00    +0.180 C 
ATOM      2  C2  UNL     1     -18.052  22.035  41.229  0.00  0.00    +0.034 A 
ATOM      3  C3  UNL     1     -17.083  22.944  41.636  0.00  0.00    +0.043 A 
ATOM      4  C4  UNL     1     -17.297  23.689  42.812  0.00  0.00    +0.099 A 
ATOM      5  C5  UNL     1     -18.520  23.533  43.543  0.00  0.00    -0.014 A 
ATOM      6  C6  UNL     1     -19.481  22.567  43.117  0.00  0.00    -0.018 A 
ATOM      7  C7  UNL     1     -19.222  21.844  41.946  0.00  0.00    +0.070 A 
ATOM      8  N3  UNL     1     -20.016  20.961  41.418  0.00  0.00    -0.174 NA
ATOM      9  C8  UNL     1     -19.313  20.527  40.258  0.00  0.00    +0.290 C 
ATOM     10  O4  UNL     1     -19.740  19.661  39.451  0.00  0.00    -0.266 OA
ATOM     11  C9  UNL     1     -20.810  22.387  43.822  0.00  0.00    +0.037 C 
ATOM     12  C10 UNL     1     -20.824  22.987  45.227  0.00  0.00    +0.005 C 
ATOM     13  C11 UNL     1     -20.249  24.398  45.199  0.00  0.00    +0.005 C 
ATOM     14  C12 UNL     1     -18.776  24.362  44.789  0.00  0.00    +0.038 C 
ENDROOT
BRANCH   1  16
ATOM     15  O1  UNL     1     -16.644  20.019  38.782  0.00  0.00    -0.143 OA
ATOM     16  N1  UNL     1     -17.035  21.134  39.180  0.00  0.00    -0.025 NA
ENDBRANCH   1  16
BRANCH   4  17
ATOM     17  N2  UNL     1     -16.264  24.596  43.245  0.00  0.00    -0.128 N 
BRANCH  17  18
ATOM     18  O2  UNL     1     -15.166  24.144  43.900  0.00  0.00    -0.262 OA
ATOM     19  H2  UNL     1     -14.517  23.922  43.184  0.00  0.00    +0.247 HD
ENDBRANCH  17  18
BRANCH  17  20
ATOM     20  O3  UNL     1     -16.352  25.917  42.953  0.00  0.00    -0.262 OA
ATOM     21  H3  UNL     1     -15.862  26.023  42.097  0.00  0.00    +0.247 HD
ENDBRANCH  17  20
ENDBRANCH   4  17
TORSDOF 4
ENDMDL
MODEL 6
REMARK minimizedAffinity -5.98156834
REMARK minimizedRMSD -1
REMARK  Name = /home/tchapet/Post-Doc/ARTICLES-DOSSIERS-DES-ARTICLES-EN-REDACTION/NOUVELS-AXES-DE-RECHERCHE-A-REGARDER-URGEMMENT/ARTICLES-EN-REDACTIONS/ARTICLE_MVOTO/Paper2_Sensors_ActuatorsB/docking_rerun/ligands/4550.pdb
REMARK  4 active torsions:
REMARK  status: ('A' for Active; 'I' for Inactive)
REMARK    1  A    between atoms: N1_2  and  C1_3
REMARK    2  A    between atoms: C4_6  and  N2_7
REMARK    3  A    between atoms: N2_7  and  O2_8
REMARK    4  A    between atoms: N2_7  and  O3_9
REMARK                            x       y       z     vdW  Elec       q    Type
REMARK                         _______ _______ _______ _____ _____    ______ ____
ROOT
ATOM      1  C1  UNL     1     -25.906  25.062  33.719  0.00  0.00    +0.180 C 
ATOM      2  C2  UNL     1     -26.084  24.056  32.882  0.00  0.00    +0.034 A 
ATOM      3  C3  UNL     1     -26.058  24.061  31.493  0.00  0.00    +0.043 A 
ATOM      4  C4  UNL     1     -26.280  22.853  30.802  0.00  0.00    +0.099 A 
ATOM      5  C5  UNL     1     -26.484  21.640  31.535  0.00  0.00    -0.014 A 
ATOM      6  C6  UNL     1     -26.537  21.673  32.961  0.00  0.00    -0.018 A 
ATOM      7  C7  UNL     1     -26.319  22.898  33.605  0.00  0.00    +0.070 A 
ATOM      8  N3  UNL     1     -26.302  23.077  34.892  0.00  0.00    -0.174 NA
ATOM      9  C8  UNL     1     -26.039  24.470  35.035  0.00  0.00    +0.290 C 
ATOM     10  O4  UNL     1     -25.941  25.064  36.139  0.00  0.00    -0.266 OA
ATOM     11  C9  UNL     1     -26.706  20.419  33.793  0.00  0.00    +0.037 C 
ATOM     12  C10 UNL     1     -27.242  19.238  32.984  0.00  0.00    +0.005 C 
ATOM     13  C11 UNL     1     -26.462  19.098  31.682  0.00  0.00    +0.005 C 
ATOM     14  C12 UNL     1     -26.682  20.327  30.799  0.00  0.00    +0.038 C 
ENDROOT
BRANCH   1  16
ATOM     15  O1  UNL     1     -26.452  27.326  33.658  0.00  0.00    -0.143 OA
ATOM     16  N1  UNL     1     -25.638  26.423  33.378  0.00  0.00    -0.025 NA
ENDBRANCH   1  16
BRANCH   4  17
ATOM     17  N2  UNL     1     -26.294  22.883  29.361  0.00  0.00    -0.128 N 
BRANCH  17  18
ATOM     18  O2  UNL     1     -27.460  22.839  28.672  0.00  0.00    -0.262 OA
ATOM     19  H2  UNL     1     -27.737  23.787  28.582  0.00  0.00    +0.247 HD
ENDBRANCH  17  18
BRANCH  17  20
ATOM     20  O3  UNL     1     -25.133  23.009  28.672  0.00  0.00    -0.262 OA
ATOM     21  H3  UNL     1     -25.024  23.984  28.530  0.00  0.00    +0.247 HD
ENDBRANCH  17  20
ENDBRANCH   4  17
TORSDOF 4
ENDMDL
MODEL 7
REMARK minimizedAffinity -5.97098207
REMARK minimizedRMSD -1
REMARK  Name = /home/tchapet/Post-Doc/ARTICLES-DOSSIERS-DES-ARTICLES-EN-REDACTION/NOUVELS-AXES-DE-RECHERCHE-A-REGARDER-URGEMMENT/ARTICLES-EN-REDACTIONS/ARTICLE_MVOTO/Paper2_Sensors_ActuatorsB/docking_rerun/ligands/4550.pdb
REMARK  4 active torsions:
REMARK  status: ('A' for Active; 'I' for Inactive)
REMARK    1  A    between atoms: N1_2  and  C1_3
REMARK    2  A    between atoms: C4_6  and  N2_7
REMARK    3  A    between atoms: N2_7  and  O2_8
REMARK    4  A    between atoms: N2_7  and  O3_9
REMARK                            x       y       z     vdW  Elec       q    Type
REMARK                         _______ _______ _______ _____ _____    ______ ____
ROOT
ATOM      1  C1  UNL     1      -7.062  23.687  15.869  0.00  0.00    +0.180 C 
ATOM      2  C2  UNL     1      -8.091  24.382  15.419  0.00  0.00    +0.034 A 
ATOM      3  C3  UNL     1      -8.635  25.558  15.918  0.00  0.00    +0.043 A 
ATOM      4  C4  UNL     1      -9.749  26.125  15.267  0.00  0.00    +0.099 A 
ATOM      5  C5  UNL     1     -10.272  25.510  14.083  0.00  0.00    -0.014 A 
ATOM      6  C6  UNL     1      -9.710  24.285  13.614  0.00  0.00    -0.018 A 
ATOM      7  C7  UNL     1      -8.609  23.754  14.298  0.00  0.00    +0.070 A 
ATOM      8  N3  UNL     1      -7.972  22.669  13.969  0.00  0.00    -0.174 NA
ATOM      9  C8  UNL     1      -6.950  22.567  14.956  0.00  0.00    +0.290 C 
ATOM     10  O4  UNL     1      -6.099  21.642  15.003  0.00  0.00    -0.266 OA
ATOM     11  C9  UNL     1     -10.190  23.611  12.345  0.00  0.00    +0.037 C 
ATOM     12  C10 UNL     1     -11.564  24.104  11.894  0.00  0.00    +0.005 C 
ATOM     13  C11 UNL     1     -11.608  25.627  11.919  0.00  0.00    +0.005 C 
ATOM     14  C12 UNL     1     -11.445  26.138  13.352  0.00  0.00    +0.038 C 
ENDROOT
BRANCH   1  16
ATOM     15  O1  UNL     1      -5.374  24.880  16.943  0.00  0.00    -0.143 OA
ATOM     16  N1  UNL     1      -6.251  23.994  17.003  0.00  0.00    -0.025 NA
ENDBRANCH   1  16
BRANCH   4  17
ATOM     17  N2  UNL     1     -10.330  27.321  15.823  0.00  0.00    -0.128 N 
BRANCH  17  18
ATOM     18  O2  UNL     1     -11.217  27.257  16.846  0.00  0.00    -0.262 OA
ATOM     19  H2  UNL     1     -10.661  27.281  17.666  0.00  0.00    +0.247 HD
ENDBRANCH  17  18
BRANCH  17  20
ATOM     20  O3  UNL     1      -9.953  28.539  15.361  0.00  0.00    -0.262 OA
ATOM     21  H3  UNL     1      -9.209  28.819  15.954  0.00  0.00    +0.247 HD
ENDBRANCH  17  20
ENDBRANCH   4  17
TORSDOF 4
ENDMDL
MODEL 8
REMARK minimizedAffinity -5.96068144
REMARK minimizedRMSD -1
REMARK  Name = /home/tchapet/Post-Doc/ARTICLES-DOSSIERS-DES-ARTICLES-EN-REDACTION/NOUVELS-AXES-DE-RECHERCHE-A-REGARDER-URGEMMENT/ARTICLES-EN-REDACTIONS/ARTICLE_MVOTO/Paper2_Sensors_ActuatorsB/docking_rerun/ligands/4550.pdb
REMARK  4 active torsions:
REMARK  status: ('A' for Active; 'I' for Inactive)
REMARK    1  A    between atoms: N1_2  and  C1_3
REMARK    2  A    between atoms: C4_6  and  N2_7
REMARK    3  A    between atoms: N2_7  and  O2_8
REMARK    4  A    between atoms: N2_7  and  O3_9
REMARK                            x       y       z     vdW  Elec       q    Type
REMARK                         _______ _______ _______ _____ _____    ______ ____
ROOT
ATOM      1  C1  UNL     1     -27.336  27.362  32.768  0.00  0.00    +0.180 C 
ATOM      2  C2  UNL     1     -26.925  26.169  32.380  0.00  0.00    +0.034 A 
ATOM      3  C3  UNL     1     -25.807  25.454  32.790  0.00  0.00    +0.043 A 
ATOM      4  C4  UNL     1     -25.565  24.185  32.229  0.00  0.00    +0.099 A 
ATOM      5  C5  UNL     1     -26.489  23.635  31.283  0.00  0.00    -0.014 A 
ATOM      6  C6  UNL     1     -27.612  24.409  30.857  0.00  0.00    -0.018 A 
ATOM      7  C7  UNL     1     -27.808  25.668  31.437  0.00  0.00    +0.070 A 
ATOM      8  N3  UNL     1     -28.799  26.468  31.177  0.00  0.00    -0.174 NA
ATOM      9  C8  UNL     1     -28.551  27.594  32.012  0.00  0.00    +0.290 C 
ATOM     10  O4  UNL     1     -29.285  28.614  32.066  0.00  0.00    -0.266 OA
ATOM     11  C9  UNL     1     -28.647  23.866  29.894  0.00  0.00    +0.037 C 
ATOM     12  C10 UNL     1     -28.153  22.648  29.115  0.00  0.00    +0.005 C 
ATOM     13  C11 UNL     1     -27.508  21.645  30.064  0.00  0.00    +0.005 C 
ATOM     14  C12 UNL     1     -26.258  22.250  30.705  0.00  0.00    +0.038 C 
ENDROOT
BRANCH   1  16
ATOM     15  O1  UNL     1     -26.389  29.383  33.435  0.00  0.00    -0.143 OA
ATOM     16  N1  UNL     1     -26.709  28.214  33.728  0.00  0.00    -0.025 NA
ENDBRANCH   1  16
BRANCH   4  17
ATOM     17  N2  UNL     1     -24.378  23.474  32.632  0.00  0.00    -0.128 N 
BRANCH  17  18
ATOM     18  O2  UNL     1     -23.143  23.953  32.343  0.00  0.00    -0.262 OA
ATOM     19  H2  UNL     1     -22.914  24.543  33.107  0.00  0.00    +0.247 HD
ENDBRANCH  17  18
BRANCH  17  20
ATOM     20  O3  UNL     1     -24.481  22.334  33.360  0.00  0.00    -0.262 OA
ATOM     21  H3  UNL     1     -24.431  22.628  34.305  0.00  0.00    +0.247 HD
ENDBRANCH  17  20
ENDBRANCH   4  17
TORSDOF 4
ENDMDL
MODEL 9
REMARK minimizedAffinity -5.92682219
REMARK minimizedRMSD -1
REMARK  Name = /home/tchapet/Post-Doc/ARTICLES-DOSSIERS-DES-ARTICLES-EN-REDACTION/NOUVELS-AXES-DE-RECHERCHE-A-REGARDER-URGEMMENT/ARTICLES-EN-REDACTIONS/ARTICLE_MVOTO/Paper2_Sensors_ActuatorsB/docking_rerun/ligands/4550.pdb
REMARK  4 active torsions:
REMARK  status: ('A' for Active; 'I' for Inactive)
REMARK    1  A    between atoms: N1_2  and  C1_3
REMARK    2  A    between atoms: C4_6  and  N2_7
REMARK    3  A    between atoms: N2_7  and  O2_8
REMARK    4  A    between atoms: N2_7  and  O3_9
REMARK                            x       y       z     vdW  Elec       q    Type
REMARK                         _______ _______ _______ _____ _____    ______ ____
ROOT
ATOM      1  C1  UNL     1       5.187  25.212  33.286  0.00  0.00    +0.180 C 
ATOM      2  C2  UNL     1       4.358  24.746  32.370  0.00  0.00    +0.034 A 
ATOM      3  C3  UNL     1       3.977  23.433  32.124  0.00  0.00    +0.043 A 
ATOM      4  C4  UNL     1       3.070  23.170  31.078  0.00  0.00    +0.099 A 
ATOM      5  C5  UNL     1       2.524  24.255  30.318  0.00  0.00    -0.014 A 
ATOM      6  C6  UNL     1       2.960  25.590  30.574  0.00  0.00    -0.018 A 
ATOM      7  C7  UNL     1       3.869  25.803  31.618  0.00  0.00    +0.070 A 
ATOM      8  N3  UNL     1       4.328  26.961  31.991  0.00  0.00    -0.174 NA
ATOM      9  C8  UNL     1       5.196  26.646  33.075  0.00  0.00    +0.290 C 
ATOM     10  O4  UNL     1       5.852  27.497  33.729  0.00  0.00    -0.266 OA
ATOM     11  C9  UNL     1       2.388  26.781  29.835  0.00  0.00    +0.037 C 
ATOM     12  C10 UNL     1       1.672  26.391  28.543  0.00  0.00    +0.005 C 
ATOM     13  C11 UNL     1       0.724  25.225  28.801  0.00  0.00    +0.005 C 
ATOM     14  C12 UNL     1       1.514  23.983  29.218  0.00  0.00    +0.038 C 
ENDROOT
BRANCH   1  16
ATOM     15  O1  UNL     1       5.297  23.719  35.070  0.00  0.00    -0.143 OA
ATOM     16  N1  UNL     1       5.901  24.452  34.262  0.00  0.00    -0.025 NA
ENDBRANCH   1  16
BRANCH   4  17
ATOM     17  N2  UNL     1       2.718  21.799  30.807  0.00  0.00    -0.128 N 
BRANCH  17  18
ATOM     18  O2  UNL     1       3.483  21.029  29.995  0.00  0.00    -0.262 OA
ATOM     19  H2  UNL     1       4.158  20.619  30.594  0.00  0.00    +0.247 HD
ENDBRANCH  17  18
BRANCH  17  20
ATOM     20  O3  UNL     1       1.638  21.242  31.409  0.00  0.00    -0.262 OA
ATOM     21  H3  UNL     1       1.994  20.818  32.232  0.00  0.00    +0.247 HD
ENDBRANCH  17  20
ENDBRANCH   4  17
TORSDOF 4
ENDMDL
