MODEL 1
REMARK minimizedAffinity -5.74586105
REMARK minimizedRMSD -1
REMARK  Name = /home/tchapet/Post-Doc/ARTICLES-DOSSIERS-DES-ARTICLES-EN-REDACTION/NOUVELS-AXES-DE-RECHERCHE-A-REGARDER-URGEMMENT/ARTICLES-EN-REDACTIONS/ARTICLE_MVOTO/Paper2_Sensors_ActuatorsB/docking_rerun/ligands/4550.pdb
REMARK  4 active torsions:
REMARK  status: ('A' for Active; 'I' for Inactive)
REMARK    1  A    between atoms: N1_2  and  C1_3
REMARK    2  A    between atoms: C4_6  and  N2_7
REMARK    3  A    between atoms: N2_7  and  O2_8
REMARK    4  A    between atoms: N2_7  and  O3_9
REMARK                            x       y       z     vdW  Elec       q    Type
REMARK                         _______ _______ _______ _____ _____    ______ ____
ROOT
ATOM      1  C1  UNL     1      18.170  -4.387  10.945  0.00  0.00    +0.180 C 
ATOM      2  C2  UNL     1      17.720  -3.578  10.004  0.00  0.00    +0.034 A 
ATOM      3  C3  UNL     1      16.531  -3.646   9.288  0.00  0.00    +0.043 A 
ATOM      4  C4  UNL     1      16.262  -2.661   8.317  0.00  0.00    +0.099 A 
ATOM      5  C5  UNL     1      17.188  -1.587   8.115  0.00  0.00    -0.014 A 
ATOM      6  C6  UNL     1      18.415  -1.563   8.844  0.00  0.00    -0.018 A 
ATOM      7  C7  UNL     1      18.644  -2.568   9.792  0.00  0.00    +0.070 A 
ATOM      8  N3  UNL     1      19.694  -2.657  10.553  0.00  0.00    -0.174 NA
ATOM      9  C8  UNL     1      19.449  -3.825  11.330  0.00  0.00    +0.290 C 
ATOM     10  O4  UNL     1      20.234  -4.274  12.205  0.00  0.00    -0.266 OA
ATOM     11  C9  UNL     1      19.413  -0.432   8.706  0.00  0.00    +0.037 C 
ATOM     12  C10 UNL     1      19.199   0.399   7.441  0.00  0.00    +0.005 C 
ATOM     13  C11 UNL     1      17.726   0.764   7.298  0.00  0.00    +0.005 C 
ATOM     14  C12 UNL     1      16.885  -0.498   7.101  0.00  0.00    +0.038 C 
ENDROOT
BRANCH   1  16
ATOM     15  O1  UNL     1      18.054  -6.673  11.377  0.00  0.00    -0.143 OA
ATOM     16  N1  UNL     1      17.518  -5.550  11.458  0.00  0.00    -0.025 NA
ENDBRANCH   1  16
BRANCH   4  17
ATOM     17  N2  UNL     1      15.045  -2.770   7.552  0.00  0.00    -0.128 N 
BRANCH  17  18
ATOM     18  O2  UNL     1      13.891  -2.212   7.991  0.00  0.00    -0.262 OA
ATOM     19  H2  UNL     1      13.902  -1.288   7.631  0.00  0.00    +0.247 HD
ENDBRANCH  17  18
BRANCH  17  20
ATOM     20  O3  UNL     1      15.053  -3.392   6.347  0.00  0.00    -0.262 OA
ATOM     21  H3  UNL     1      15.212  -2.670   5.687  0.00  0.00    +0.247 HD
ENDBRANCH  17  20
ENDBRANCH   4  17
TORSDOF 4
ENDMDL
MODEL 2
REMARK minimizedAffinity -5.70943356
REMARK minimizedRMSD -1
REMARK  Name = /home/tchapet/Post-Doc/ARTICLES-DOSSIERS-DES-ARTICLES-EN-REDACTION/NOUVELS-AXES-DE-RECHERCHE-A-REGARDER-URGEMMENT/ARTICLES-EN-REDACTIONS/ARTICLE_MVOTO/Paper2_Sensors_ActuatorsB/docking_rerun/ligands/4550.pdb
REMARK  4 active torsions:
REMARK  status: ('A' for Active; 'I' for Inactive)
REMARK    1  A    between atoms: N1_2  and  C1_3
REMARK    2  A    between atoms: C4_6  and  N2_7
REMARK    3  A    between atoms: N2_7  and  O2_8
REMARK    4  A    between atoms: N2_7  and  O3_9
REMARK                            x       y       z     vdW  Elec       q    Type
REMARK                         _______ _______ _______ _____ _____    ______ ____
ROOT
ATOM      1  C1  UNL     1       7.536  17.463  19.627  0.00  0.00    +0.180 C 
ATOM      2  C2  UNL     1       7.006  16.254  19.649  0.00  0.00    +0.034 A 
ATOM      3  C3  UNL     1       6.294  15.631  20.666  0.00  0.00    +0.043 A 
ATOM      4  C4  UNL     1       5.820  14.320  20.464  0.00  0.00    +0.099 A 
ATOM      5  C5  UNL     1       6.039  13.668  19.207  0.00  0.00    -0.014 A 
ATOM      6  C6  UNL     1       6.803  14.323  18.193  0.00  0.00    -0.018 A 
ATOM      7  C7  UNL     1       7.260  15.623  18.442  0.00  0.00    +0.070 A 
ATOM      8  N3  UNL     1       7.933  16.356  17.605  0.00  0.00    -0.174 NA
ATOM      9  C8  UNL     1       8.148  17.570  18.318  0.00  0.00    +0.290 C 
ATOM     10  O4  UNL     1       8.771  18.562  17.859  0.00  0.00    -0.266 OA
ATOM     11  C9  UNL     1       7.031  13.705  16.829  0.00  0.00    +0.037 C 
ATOM     12  C10 UNL     1       6.766  12.201  16.807  0.00  0.00    +0.005 C 
ATOM     13  C11 UNL     1       5.435  11.893  17.485  0.00  0.00    +0.005 C 
ATOM     14  C12 UNL     1       5.496  12.271  18.965  0.00  0.00    +0.038 C 
ENDROOT
BRANCH   1  16
ATOM     15  O1  UNL     1       8.542  18.795  21.252  0.00  0.00    -0.143 OA
ATOM     16  N1  UNL     1       7.497  18.435  20.673  0.00  0.00    -0.025 NA
ENDBRANCH   1  16
BRANCH   4  17
ATOM     17  N2  UNL     1       5.121  13.670  21.545  0.00  0.00    -0.128 N 
BRANCH  17  18
ATOM     18  O2  UNL     1       5.620  13.681  22.805  0.00  0.00    -0.262 OA
ATOM     19  H2  UNL     1       5.256  14.507  23.215  0.00  0.00    +0.247 HD
ENDBRANCH  17  18
BRANCH  17  20
ATOM     20  O3  UNL     1       3.920  13.082  21.322  0.00  0.00    -0.262 OA
ATOM     21  H3  UNL     1       3.250  13.784  21.525  0.00  0.00    +0.247 HD
ENDBRANCH  17  20
ENDBRANCH   4  17
TORSDOF 4
ENDMDL
MODEL 3
REMARK minimizedAffinity -5.65766668
REMARK minimizedRMSD -1
REMARK  Name = /home/tchapet/Post-Doc/ARTICLES-DOSSIERS-DES-ARTICLES-EN-REDACTION/NOUVELS-AXES-DE-RECHERCHE-A-REGARDER-URGEMMENT/ARTICLES-EN-REDACTIONS/ARTICLE_MVOTO/Paper2_Sensors_ActuatorsB/docking_rerun/ligands/4550.pdb
REMARK  4 active torsions:
REMARK  status: ('A' for Active; 'I' for Inactive)
REMARK    1  A    between atoms: N1_2  and  C1_3
REMARK    2  A    between atoms: C4_6  and  N2_7
REMARK    3  A    between atoms: N2_7  and  O2_8
REMARK    4  A    between atoms: N2_7  and  O3_9
REMARK                            x       y       z     vdW  Elec       q    Type
REMARK                         _______ _______ _______ _____ _____    ______ ____
ROOT
ATOM      1  C1  UNL     1       7.700  17.520  20.917  0.00  0.00    +0.180 C 
ATOM      2  C2  UNL     1       7.487  16.524  20.077  0.00  0.00    +0.034 A 
ATOM      3  C3  UNL     1       8.133  16.236  18.881  0.00  0.00    +0.043 A 
ATOM      4  C4  UNL     1       7.730  15.107  18.142  0.00  0.00    +0.099 A 
ATOM      5  C5  UNL     1       6.698  14.253  18.650  0.00  0.00    -0.014 A 
ATOM      6  C6  UNL     1       6.031  14.593  19.866  0.00  0.00    -0.018 A 
ATOM      7  C7  UNL     1       6.461  15.730  20.563  0.00  0.00    +0.070 A 
ATOM      8  N3  UNL     1       5.976  16.144  21.696  0.00  0.00    -0.174 NA
ATOM      9  C8  UNL     1       6.740  17.311  21.982  0.00  0.00    +0.290 C 
ATOM     10  O4  UNL     1       6.586  18.026  23.006  0.00  0.00    -0.266 OA
ATOM     11  C9  UNL     1       4.964  13.708  20.475  0.00  0.00    +0.037 C 
ATOM     12  C10 UNL     1       4.384  12.706  19.480  0.00  0.00    +0.005 C 
ATOM     13  C11 UNL     1       5.508  12.003  18.727  0.00  0.00    +0.005 C 
ATOM     14  C12 UNL     1       6.287  13.011  17.880  0.00  0.00    +0.038 C 
ENDROOT
BRANCH   1  16
ATOM     15  O1  UNL     1       9.860  18.369  21.111  0.00  0.00    -0.143 OA
ATOM     16  N1  UNL     1       8.671  18.559  20.785  0.00  0.00    -0.025 NA
ENDBRANCH   1  16
BRANCH   4  17
ATOM     17  N2  UNL     1       8.380  14.847  16.882  0.00  0.00    -0.128 N 
BRANCH  17  18
ATOM     18  O2  UNL     1       7.817  15.235  15.711  0.00  0.00    -0.262 OA
ATOM     19  H2  UNL     1       8.149  16.158  15.564  0.00  0.00    +0.247 HD
ENDBRANCH  17  18
BRANCH  17  20
ATOM     20  O3  UNL     1       9.599  14.253  16.855  0.00  0.00    -0.262 OA
ATOM     21  H3  UNL     1      10.249  15.002  16.851  0.00  0.00    +0.247 HD
ENDBRANCH  17  20
ENDBRANCH   4  17
TORSDOF 4
ENDMDL
MODEL 4
REMARK minimizedAffinity -5.62974834
REMARK minimizedRMSD -1
REMARK  Name = /home/tchapet/Post-Doc/ARTICLES-DOSSIERS-DES-ARTICLES-EN-REDACTION/NOUVELS-AXES-DE-RECHERCHE-A-REGARDER-URGEMMENT/ARTICLES-EN-REDACTIONS/ARTICLE_MVOTO/Paper2_Sensors_ActuatorsB/docking_rerun/ligands/4550.pdb
REMARK  4 active torsions:
REMARK  status: ('A' for Active; 'I' for Inactive)
REMARK    1  A    between atoms: N1_2  and  C1_3
REMARK    2  A    between atoms: C4_6  and  N2_7
REMARK    3  A    between atoms: N2_7  and  O2_8
REMARK    4  A    between atoms: N2_7  and  O3_9
REMARK                            x       y       z     vdW  Elec       q    Type
REMARK                         _______ _______ _______ _____ _____    ______ ____
ROOT
ATOM      1  C1  UNL     1       5.265  14.068  20.559  0.00  0.00    +0.180 C 
ATOM      2  C2  UNL     1       6.167  14.744  19.871  0.00  0.00    +0.034 A 
ATOM      3  C3  UNL     1       6.799  14.398  18.683  0.00  0.00    +0.043 A 
ATOM      4  C4  UNL     1       7.741  15.286  18.127  0.00  0.00    +0.099 A 
ATOM      5  C5  UNL     1       8.000  16.542  18.765  0.00  0.00    -0.014 A 
ATOM      6  C6  UNL     1       7.358  16.854  20.002  0.00  0.00    -0.018 A 
ATOM      7  C7  UNL     1       6.435  15.938  20.521  0.00  0.00    +0.070 A 
ATOM      8  N3  UNL     1       5.750  16.099  21.614  0.00  0.00    -0.174 NA
ATOM      9  C8  UNL     1       4.966  14.913  21.698  0.00  0.00    +0.290 C 
ATOM     10  O4  UNL     1       4.152  14.665  22.624  0.00  0.00    -0.266 OA
ATOM     11  C9  UNL     1       7.557  18.183  20.701  0.00  0.00    +0.037 C 
ATOM     12  C10 UNL     1       8.797  18.931  20.214  0.00  0.00    +0.005 C 
ATOM     13  C11 UNL     1       8.835  18.946  18.690  0.00  0.00    +0.005 C 
ATOM     14  C12 UNL     1       8.982  17.523  18.150  0.00  0.00    +0.038 C 
ENDROOT
BRANCH   1  16
ATOM     15  O1  UNL     1       3.969  12.651  19.241  0.00  0.00    -0.143 OA
ATOM     16  N1  UNL     1       4.716  12.791  20.230  0.00  0.00    -0.025 NA
ENDBRANCH   1  16
BRANCH   4  17
ATOM     17  N2  UNL     1       8.420  14.893  16.918  0.00  0.00    -0.128 N 
BRANCH  17  18
ATOM     18  O2  UNL     1       9.586  14.202  16.964  0.00  0.00    -0.262 OA
ATOM     19  H2  UNL     1       9.315  13.249  16.988  0.00  0.00    +0.247 HD
ENDBRANCH  17  18
BRANCH  17  20
ATOM     20  O3  UNL     1       7.869  15.165  15.709  0.00  0.00    -0.262 OA
ATOM     21  H3  UNL     1       7.340  14.359  15.481  0.00  0.00    +0.247 HD
ENDBRANCH  17  20
ENDBRANCH   4  17
TORSDOF 4
ENDMDL
MODEL 5
REMARK minimizedAffinity -5.61405849
REMARK minimizedRMSD -1
REMARK  Name = /home/tchapet/Post-Doc/ARTICLES-DOSSIERS-DES-ARTICLES-EN-REDACTION/NOUVELS-AXES-DE-RECHERCHE-A-REGARDER-URGEMMENT/ARTICLES-EN-REDACTIONS/ARTICLE_MVOTO/Paper2_Sensors_ActuatorsB/docking_rerun/ligands/4550.pdb
REMARK  4 active torsions:
REMARK  status: ('A' for Active; 'I' for Inactive)
REMARK    1  A    between atoms: N1_2  and  C1_3
REMARK    2  A    between atoms: C4_6  and  N2_7
REMARK    3  A    between atoms: N2_7  and  O2_8
REMARK    4  A    between atoms: N2_7  and  O3_9
REMARK                            x       y       z     vdW  Elec       q    Type
REMARK                         _______ _______ _______ _____ _____    ______ ____
ROOT
ATOM      1  C1  UNL     1       7.587  16.070  17.372  0.00  0.00    +0.180 C 
ATOM      2  C2  UNL     1       6.879  15.413  18.272  0.00  0.00    +0.034 A 
ATOM      3  C3  UNL     1       6.181  14.220  18.134  0.00  0.00    +0.043 A 
ATOM      4  C4  UNL     1       5.486  13.703  19.245  0.00  0.00    +0.099 A 
ATOM      5  C5  UNL     1       5.545  14.385  20.504  0.00  0.00    -0.014 A 
ATOM      6  C6  UNL     1       6.244  15.626  20.605  0.00  0.00    -0.018 A 
ATOM      7  C7  UNL     1       6.914  16.105  19.472  0.00  0.00    +0.070 A 
ATOM      8  N3  UNL     1       7.618  17.197  19.422  0.00  0.00    -0.174 NA
ATOM      9  C8  UNL     1       8.086  17.234  18.077  0.00  0.00    +0.290 C 
ATOM     10  O4  UNL     1       8.814  18.144  17.604  0.00  0.00    -0.266 OA
ATOM     11  C9  UNL     1       6.379  16.371  21.917  0.00  0.00    +0.037 C 
ATOM     12  C10 UNL     1       5.361  15.920  22.963  0.00  0.00    +0.005 C 
ATOM     13  C11 UNL     1       5.328  14.398  23.041  0.00  0.00    +0.005 C 
ATOM     14  C12 UNL     1       4.834  13.812  21.717  0.00  0.00    +0.038 C 
ENDROOT
BRANCH   1  16
ATOM     15  O1  UNL     1       8.814  15.040  15.682  0.00  0.00    -0.143 OA
ATOM     16  N1  UNL     1       7.804  15.693  16.012  0.00  0.00    -0.025 NA
ENDBRANCH   1  16
BRANCH   4  17
ATOM     17  N2  UNL     1       4.730  12.488  19.074  0.00  0.00    -0.128 N 
BRANCH  17  18
ATOM     18  O2  UNL     1       3.404  12.445  19.352  0.00  0.00    -0.262 OA
ATOM     19  H2  UNL     1       2.959  12.708  18.506  0.00  0.00    +0.247 HD
ENDBRANCH  17  18
BRANCH  17  20
ATOM     20  O3  UNL     1       5.330  11.378  18.578  0.00  0.00    -0.262 OA
ATOM     21  H3  UNL     1       5.177  11.419  17.599  0.00  0.00    +0.247 HD
ENDBRANCH  17  20
ENDBRANCH   4  17
TORSDOF 4
ENDMDL
MODEL 6
REMARK minimizedAffinity -5.57520771
REMARK minimizedRMSD -1
REMARK  Name = /home/tchapet/Post-Doc/ARTICLES-DOSSIERS-DES-ARTICLES-EN-REDACTION/NOUVELS-AXES-DE-RECHERCHE-A-REGARDER-URGEMMENT/ARTICLES-EN-REDACTIONS/ARTICLE_MVOTO/Paper2_Sensors_ActuatorsB/docking_rerun/ligands/4550.pdb
REMARK  4 active torsions:
REMARK  status: ('A' for Active; 'I' for Inactive)
REMARK    1  A    between atoms: N1_2  and  C1_3
REMARK    2  A    between atoms: C4_6  and  N2_7
REMARK    3  A    between atoms: N2_7  and  O2_8
REMARK    4  A    between atoms: N2_7  and  O3_9
REMARK                            x       y       z     vdW  Elec       q    Type
REMARK                         _______ _______ _______ _____ _____    ______ ____
ROOT
ATOM      1  C1  UNL     1       6.508  13.304  17.380  0.00  0.00    +0.180 C 
ATOM      2  C2  UNL     1       6.608  14.158  18.382  0.00  0.00    +0.034 A 
ATOM      3  C3  UNL     1       7.307  15.357  18.441  0.00  0.00    +0.043 A 
ATOM      4  C4  UNL     1       7.272  16.110  19.632  0.00  0.00    +0.099 A 
ATOM      5  C5  UNL     1       6.487  15.655  20.740  0.00  0.00    -0.014 A 
ATOM      6  C6  UNL     1       5.806  14.403  20.660  0.00  0.00    -0.018 A 
ATOM      7  C7  UNL     1       5.876  13.685  19.459  0.00  0.00    +0.070 A 
ATOM      8  N3  UNL     1       5.282  12.552  19.226  0.00  0.00    -0.174 NA
ATOM      9  C8  UNL     1       5.655  12.247  17.886  0.00  0.00    +0.290 C 
ATOM     10  O4  UNL     1       5.287  11.217  17.264  0.00  0.00    -0.266 OA
ATOM     11  C9  UNL     1       4.926  13.890  21.780  0.00  0.00    +0.037 C 
ATOM     12  C10 UNL     1       5.191  14.590  23.112  0.00  0.00    +0.005 C 
ATOM     13  C11 UNL     1       5.232  16.100  22.911  0.00  0.00    +0.005 C 
ATOM     14  C12 UNL     1       6.409  16.482  22.011  0.00  0.00    +0.038 C 
ENDROOT
BRANCH   1  16
ATOM     15  O1  UNL     1       6.428  13.709  15.088  0.00  0.00    -0.143 OA
ATOM     16  N1  UNL     1       7.111  13.421  16.091  0.00  0.00    -0.025 NA
ENDBRANCH   1  16
BRANCH   4  17
ATOM     17  N2  UNL     1       8.038  17.330  19.692  0.00  0.00    -0.128 N 
BRANCH  17  18
ATOM     18  O2  UNL     1       9.335  17.322  20.084  0.00  0.00    -0.262 OA
ATOM     19  H2  UNL     1       9.851  17.172  19.251  0.00  0.00    +0.247 HD
ENDBRANCH  17  18
BRANCH  17  20
ATOM     20  O3  UNL     1       7.480  18.503  19.303  0.00  0.00    -0.262 OA
ATOM     21  H3  UNL     1       7.716  18.593  18.344  0.00  0.00    +0.247 HD
ENDBRANCH  17  20
ENDBRANCH   4  17
TORSDOF 4
ENDMDL
MODEL 7
REMARK minimizedAffinity -5.55025387
REMARK minimizedRMSD -1
REMARK  Name = /home/tchapet/Post-Doc/ARTICLES-DOSSIERS-DES-ARTICLES-EN-REDACTION/NOUVELS-AXES-DE-RECHERCHE-A-REGARDER-URGEMMENT/ARTICLES-EN-REDACTIONS/ARTICLE_MVOTO/Paper2_Sensors_ActuatorsB/docking_rerun/ligands/4550.pdb
REMARK  4 active torsions:
REMARK  status: ('A' for Active; 'I' for Inactive)
REMARK    1  A    between atoms: N1_2  and  C1_3
REMARK    2  A    between atoms: C4_6  and  N2_7
REMARK    3  A    between atoms: N2_7  and  O2_8
REMARK    4  A    between atoms: N2_7  and  O3_9
REMARK                            x       y       z     vdW  Elec       q    Type
REMARK                         _______ _______ _______ _____ _____    ______ ____
ROOT
ATOM      1  C1  UNL     1       5.851  12.637  17.535  0.00  0.00    +0.180 C 
ATOM      2  C2  UNL     1       5.933  13.452  18.572  0.00  0.00    +0.034 A 
ATOM      3  C3  UNL     1       5.381  13.312  19.838  0.00  0.00    +0.043 A 
ATOM      4  C4  UNL     1       5.601  14.323  20.794  0.00  0.00    +0.099 A 
ATOM      5  C5  UNL     1       6.422  15.450  20.464  0.00  0.00    -0.014 A 
ATOM      6  C6  UNL     1       6.948  15.580  19.143  0.00  0.00    -0.018 A 
ATOM      7  C7  UNL     1       6.696  14.554  18.224  0.00  0.00    +0.070 A 
ATOM      8  N3  UNL     1       7.137  14.516  17.001  0.00  0.00    -0.174 NA
ATOM      9  C8  UNL     1       6.620  13.290  16.495  0.00  0.00    +0.290 C 
ATOM     10  O4  UNL     1       6.815  12.865  15.327  0.00  0.00    -0.266 OA
ATOM     11  C9  UNL     1       7.857  16.725  18.747  0.00  0.00    +0.037 C 
ATOM     12  C10 UNL     1       7.787  17.903  19.716  0.00  0.00    +0.005 C 
ATOM     13  C11 UNL     1       7.898  17.407  21.153  0.00  0.00    +0.005 C 
ATOM     14  C12 UNL     1       6.699  16.523  21.502  0.00  0.00    +0.038 C 
ENDROOT
BRANCH   1  16
ATOM     15  O1  UNL     1       4.149  11.249  16.758  0.00  0.00    -0.143 OA
ATOM     16  N1  UNL     1       5.157  11.390  17.479  0.00  0.00    -0.025 NA
ENDBRANCH   1  16
BRANCH   4  17
ATOM     17  N2  UNL     1       4.985  14.185  22.090  0.00  0.00    -0.128 N 
BRANCH  17  18
ATOM     18  O2  UNL     1       5.692  13.737  23.156  0.00  0.00    -0.262 OA
ATOM     19  H2  UNL     1       6.091  14.552  23.557  0.00  0.00    +0.247 HD
ENDBRANCH  17  18
BRANCH  17  20
ATOM     20  O3  UNL     1       3.693  14.556  22.272  0.00  0.00    -0.262 OA
ATOM     21  H3  UNL     1       3.737  15.499  22.573  0.00  0.00    +0.247 HD
ENDBRANCH  17  20
ENDBRANCH   4  17
TORSDOF 4
ENDMDL
MODEL 8
REMARK minimizedAffinity -5.49905443
REMARK minimizedRMSD -1
REMARK  Name = /home/tchapet/Post-Doc/ARTICLES-DOSSIERS-DES-ARTICLES-EN-REDACTION/NOUVELS-AXES-DE-RECHERCHE-A-REGARDER-URGEMMENT/ARTICLES-EN-REDACTIONS/ARTICLE_MVOTO/Paper2_Sensors_ActuatorsB/docking_rerun/ligands/4550.pdb
REMARK  4 active torsions:
REMARK  status: ('A' for Active; 'I' for Inactive)
REMARK    1  A    between atoms: N1_2  and  C1_3
REMARK    2  A    between atoms: C4_6  and  N2_7
REMARK    3  A    between atoms: N2_7  and  O2_8
REMARK    4  A    between atoms: N2_7  and  O3_9
REMARK                            x       y       z     vdW  Elec       q    Type
REMARK                         _______ _______ _______ _____ _____    ______ ____
ROOT
ATOM      1  C1  UNL     1      18.098   0.686   6.473  0.00  0.00    +0.180 C 
ATOM      2  C2  UNL     1      17.638  -0.350   7.150  0.00  0.00    +0.034 A 
ATOM      3  C3  UNL     1      16.449  -1.047   6.977  0.00  0.00    +0.043 A 
ATOM      4  C4  UNL     1      16.164  -2.131   7.831  0.00  0.00    +0.099 A 
ATOM      5  C5  UNL     1      17.114  -2.523   8.829  0.00  0.00    -0.014 A 
ATOM      6  C6  UNL     1      18.312  -1.765   9.003  0.00  0.00    -0.018 A 
ATOM      7  C7  UNL     1      18.550  -0.691   8.136  0.00  0.00    +0.070 A 
ATOM      8  N3  UNL     1      19.607   0.065   8.149  0.00  0.00    -0.174 NA
ATOM      9  C8  UNL     1      19.375   0.987   7.089  0.00  0.00    +0.290 C 
ATOM     10  O4  UNL     1      20.170   1.905   6.760  0.00  0.00    -0.266 OA
ATOM     11  C9  UNL     1      19.374  -2.155  10.010  0.00  0.00    +0.037 C 
ATOM     12  C10 UNL     1      18.856  -3.119  11.076  0.00  0.00    +0.005 C 
ATOM     13  C11 UNL     1      18.082  -4.257  10.422  0.00  0.00    +0.005 C 
ATOM     14  C12 UNL     1      16.833  -3.715   9.725  0.00  0.00    +0.038 C 
ENDROOT
BRANCH   1  16
ATOM     15  O1  UNL     1      18.027   1.428   4.266  0.00  0.00    -0.143 OA
ATOM     16  N1  UNL     1      17.463   1.344   5.376  0.00  0.00    -0.025 NA
ENDBRANCH   1  16
BRANCH   4  17
ATOM     17  N2  UNL     1      14.907  -2.818   7.667  0.00  0.00    -0.128 N 
BRANCH  17  18
ATOM     18  O2  UNL     1      13.742  -2.247   8.062  0.00  0.00    -0.262 OA
ATOM     19  H2  UNL     1      13.433  -1.730   7.275  0.00  0.00    +0.247 HD
ENDBRANCH  17  18
BRANCH  17  20
ATOM     20  O3  UNL     1      14.868  -4.031   7.063  0.00  0.00    -0.262 OA
ATOM     21  H3  UNL     1      14.701  -3.835   6.105  0.00  0.00    +0.247 HD
ENDBRANCH  17  20
ENDBRANCH   4  17
TORSDOF 4
ENDMDL
MODEL 9
REMARK minimizedAffinity -5.47679758
REMARK minimizedRMSD -1
REMARK  Name = /home/tchapet/Post-Doc/ARTICLES-DOSSIERS-DES-ARTICLES-EN-REDACTION/NOUVELS-AXES-DE-RECHERCHE-A-REGARDER-URGEMMENT/ARTICLES-EN-REDACTIONS/ARTICLE_MVOTO/Paper2_Sensors_ActuatorsB/docking_rerun/ligands/4550.pdb
REMARK  4 active torsions:
REMARK  status: ('A' for Active; 'I' for Inactive)
REMARK    1  A    between atoms: N1_2  and  C1_3
REMARK    2  A    between atoms: C4_6  and  N2_7
REMARK    3  A    between atoms: N2_7  and  O2_8
REMARK    4  A    between atoms: N2_7  and  O3_9
REMARK                            x       y       z     vdW  Elec       q    Type
REMARK                         _______ _______ _______ _____ _____    ______ ____
ROOT
ATOM      1  C1  UNL     1       6.041  15.952  21.640  0.00  0.00    +0.180 C 
ATOM      2  C2  UNL     1       6.382  15.496  20.449  0.00  0.00    +0.034 A 
ATOM      3  C3  UNL     1       7.242  16.056  19.513  0.00  0.00    +0.043 A 
ATOM      4  C4  UNL     1       7.455  15.383  18.293  0.00  0.00    +0.099 A 
ATOM      5  C5  UNL     1       6.821  14.120  18.055  0.00  0.00    -0.014 A 
ATOM      6  C6  UNL     1       5.918  13.587  19.024  0.00  0.00    -0.018 A 
ATOM      7  C7  UNL     1       5.731  14.294  20.218  0.00  0.00    +0.070 A 
ATOM      8  N3  UNL     1       4.971  13.918  21.203  0.00  0.00    -0.174 NA
ATOM      9  C8  UNL     1       5.126  14.958  22.164  0.00  0.00    +0.290 C 
ATOM     10  O4  UNL     1       4.550  14.982  23.282  0.00  0.00    -0.266 OA
ATOM     11  C9  UNL     1       5.253  12.237  18.850  0.00  0.00    +0.037 C 
ATOM     12  C10 UNL     1       5.287  11.740  17.406  0.00  0.00    +0.005 C 
ATOM     13  C11 UNL     1       6.692  11.890  16.833  0.00  0.00    +0.005 C 
ATOM     14  C12 UNL     1       7.079  13.368  16.762  0.00  0.00    +0.038 C 
ENDROOT
BRANCH   1  16
ATOM     15  O1  UNL     1       7.430  17.147  23.077  0.00  0.00    -0.143 OA
ATOM     16  N1  UNL     1       6.491  17.159  22.256  0.00  0.00    -0.025 NA
ENDBRANCH   1  16
BRANCH   4  17
ATOM     17  N2  UNL     1       8.315  15.998  17.314  0.00  0.00    -0.128 N 
BRANCH  17  18
ATOM     18  O2  UNL     1       7.827  16.885  16.413  0.00  0.00    -0.262 OA
ATOM     19  H2  UNL     1       7.896  17.767  16.862  0.00  0.00    +0.247 HD
ENDBRANCH  17  18
BRANCH  17  20
ATOM     20  O3  UNL     1       9.645  15.734  17.316  0.00  0.00    -0.262 OA
ATOM     21  H3  UNL     1      10.047  16.445  17.878  0.00  0.00    +0.247 HD
ENDBRANCH  17  20
ENDBRANCH   4  17
TORSDOF 4
ENDMDL
