MODEL 1
REMARK minimizedAffinity -5.78317261
REMARK minimizedRMSD -1
REMARK  Name = /home/tchapet/Post-Doc/ARTICLES-DOSSIERS-DES-ARTICLES-EN-REDACTION/NOUVELS-AXES-DE-RECHERCHE-A-REGARDER-URGEMMENT/ARTICLES-EN-REDACTIONS/ARTICLE_MVOTO/Paper2_Sensors_ActuatorsB/docking_rerun/ligands/4550.pdb
REMARK  4 active torsions:
REMARK  status: ('A' for Active; 'I' for Inactive)
REMARK    1  A    between atoms: N1_2  and  C1_3
REMARK    2  A    between atoms: C4_6  and  N2_7
REMARK    3  A    between atoms: N2_7  and  O2_8
REMARK    4  A    between atoms: N2_7  and  O3_9
REMARK                            x       y       z     vdW  Elec       q    Type
REMARK                         _______ _______ _______ _____ _____    ______ ____
ROOT
ATOM      1  C1  UNL     1      12.122 -15.257  -5.079  0.00  0.00    +0.180 C 
ATOM      2  C2  UNL     1      12.423 -14.701  -3.920  0.00  0.00    +0.034 A 
ATOM      3  C3  UNL     1      11.916 -14.984  -2.658  0.00  0.00    +0.043 A 
ATOM      4  C4  UNL     1      12.389 -14.250  -1.552  0.00  0.00    +0.099 A 
ATOM      5  C5  UNL     1      13.408 -13.260  -1.736  0.00  0.00    -0.014 A 
ATOM      6  C6  UNL     1      13.885 -12.970  -3.050  0.00  0.00    -0.018 A 
ATOM      7  C7  UNL     1      13.380 -13.720  -4.120  0.00  0.00    +0.070 A 
ATOM      8  N3  UNL     1      13.743 -13.594  -5.362  0.00  0.00    -0.174 NA
ATOM      9  C8  UNL     1      12.958 -14.569  -6.042  0.00  0.00    +0.290 C 
ATOM     10  O4  UNL     1      13.004 -14.777  -7.282  0.00  0.00    -0.266 OA
ATOM     11  C9  UNL     1      14.991 -11.967  -3.304  0.00  0.00    +0.037 C 
ATOM     12  C10 UNL     1      15.214 -11.019  -2.127  0.00  0.00    +0.005 C 
ATOM     13  C11 UNL     1      15.291 -11.808  -0.825  0.00  0.00    +0.005 C 
ATOM     14  C12 UNL     1      13.953 -12.495  -0.544  0.00  0.00    +0.038 C 
ENDROOT
BRANCH   1  16
ATOM     15  O1  UNL     1      11.565 -17.484  -5.475  0.00  0.00    -0.143 OA
ATOM     16  N1  UNL     1      11.183 -16.309  -5.307  0.00  0.00    -0.025 NA
ENDBRANCH   1  16
BRANCH   4  17
ATOM     17  N2  UNL     1      11.822 -14.526  -0.255  0.00  0.00    -0.128 N 
BRANCH  17  18
ATOM     18  O2  UNL     1      10.557 -14.146   0.049  0.00  0.00    -0.262 OA
ATOM     19  H2  UNL     1       9.988 -14.906  -0.236  0.00  0.00    +0.247 HD
ENDBRANCH  17  18
BRANCH  17  20
ATOM     20  O3  UNL     1      12.535 -15.221   0.665  0.00  0.00    -0.262 OA
ATOM     21  H3  UNL     1      12.274 -16.168   0.529  0.00  0.00    +0.247 HD
ENDBRANCH  17  20
ENDBRANCH   4  17
TORSDOF 4
ENDMDL
MODEL 2
REMARK minimizedAffinity -5.74852133
REMARK minimizedRMSD -1
REMARK  Name = /home/tchapet/Post-Doc/ARTICLES-DOSSIERS-DES-ARTICLES-EN-REDACTION/NOUVELS-AXES-DE-RECHERCHE-A-REGARDER-URGEMMENT/ARTICLES-EN-REDACTIONS/ARTICLE_MVOTO/Paper2_Sensors_ActuatorsB/docking_rerun/ligands/4550.pdb
REMARK  4 active torsions:
REMARK  status: ('A' for Active; 'I' for Inactive)
REMARK    1  A    between atoms: N1_2  and  C1_3
REMARK    2  A    between atoms: C4_6  and  N2_7
REMARK    3  A    between atoms: N2_7  and  O2_8
REMARK    4  A    between atoms: N2_7  and  O3_9
REMARK                            x       y       z     vdW  Elec       q    Type
REMARK                         _______ _______ _______ _____ _____    ______ ____
ROOT
ATOM      1  C1  UNL     1      31.319 -17.991  11.560  0.00  0.00    +0.180 C 
ATOM      2  C2  UNL     1      30.331 -17.363  10.948  0.00  0.00    +0.034 A 
ATOM      3  C3  UNL     1      29.177 -16.814  11.490  0.00  0.00    +0.043 A 
ATOM      4  C4  UNL     1      28.251 -16.187  10.632  0.00  0.00    +0.099 A 
ATOM      5  C5  UNL     1      28.532 -16.088   9.230  0.00  0.00    -0.014 A 
ATOM      6  C6  UNL     1      29.712 -16.691   8.700  0.00  0.00    -0.018 A 
ATOM      7  C7  UNL     1      30.599 -17.310   9.589  0.00  0.00    +0.070 A 
ATOM      8  N3  UNL     1      31.726 -17.868   9.260  0.00  0.00    -0.174 NA
ATOM      9  C8  UNL     1      32.246 -18.334  10.501  0.00  0.00    +0.290 C 
ATOM     10  O4  UNL     1      33.339 -18.944  10.628  0.00  0.00    -0.266 OA
ATOM     11  C9  UNL     1      30.085 -16.581   7.236  0.00  0.00    +0.037 C 
ATOM     12  C10 UNL     1      28.908 -16.176   6.351  0.00  0.00    +0.005 C 
ATOM     13  C11 UNL     1      28.178 -14.986   6.962  0.00  0.00    +0.005 C 
ATOM     14  C12 UNL     1      27.560 -15.377   8.305  0.00  0.00    +0.038 C 
ENDROOT
BRANCH   1  16
ATOM     15  O1  UNL     1      31.416 -19.423  13.394  0.00  0.00    -0.143 OA
ATOM     16  N1  UNL     1      31.429 -18.254  12.960  0.00  0.00    -0.025 NA
ENDBRANCH   1  16
BRANCH   4  17
ATOM     17  N2  UNL     1      27.037 -15.661  11.203  0.00  0.00    -0.128 N 
BRANCH  17  18
ATOM     18  O2  UNL     1      25.837 -16.238  10.948  0.00  0.00    -0.262 OA
ATOM     19  H2  UNL     1      25.734 -16.931  11.650  0.00  0.00    +0.247 HD
ENDBRANCH  17  18
BRANCH  17  20
ATOM     20  O3  UNL     1      27.086 -14.605  12.052  0.00  0.00    -0.262 OA
ATOM     21  H3  UNL     1      27.147 -15.007  12.957  0.00  0.00    +0.247 HD
ENDBRANCH  17  20
ENDBRANCH   4  17
TORSDOF 4
ENDMDL
MODEL 3
REMARK minimizedAffinity -5.47923231
REMARK minimizedRMSD -1
REMARK  Name = /home/tchapet/Post-Doc/ARTICLES-DOSSIERS-DES-ARTICLES-EN-REDACTION/NOUVELS-AXES-DE-RECHERCHE-A-REGARDER-URGEMMENT/ARTICLES-EN-REDACTIONS/ARTICLE_MVOTO/Paper2_Sensors_ActuatorsB/docking_rerun/ligands/4550.pdb
REMARK  4 active torsions:
REMARK  status: ('A' for Active; 'I' for Inactive)
REMARK    1  A    between atoms: N1_2  and  C1_3
REMARK    2  A    between atoms: C4_6  and  N2_7
REMARK    3  A    between atoms: N2_7  and  O2_8
REMARK    4  A    between atoms: N2_7  and  O3_9
REMARK                            x       y       z     vdW  Elec       q    Type
REMARK                         _______ _______ _______ _____ _____    ______ ____
ROOT
ATOM      1  C1  UNL     1       7.910 -11.714  28.441  0.00  0.00    +0.180 C 
ATOM      2  C2  UNL     1       7.260 -12.681  27.819  0.00  0.00    +0.034 A 
ATOM      3  C3  UNL     1       5.891 -12.905  27.744  0.00  0.00    +0.043 A 
ATOM      4  C4  UNL     1       5.421 -14.016  27.016  0.00  0.00    +0.099 A 
ATOM      5  C5  UNL     1       6.349 -14.868  26.334  0.00  0.00    -0.014 A 
ATOM      6  C6  UNL     1       7.752 -14.629  26.457  0.00  0.00    -0.018 A 
ATOM      7  C7  UNL     1       8.174 -13.517  27.197  0.00  0.00    +0.070 A 
ATOM      8  N3  UNL     1       9.410 -13.153  27.368  0.00  0.00    -0.174 NA
ATOM      9  C8  UNL     1       9.309 -11.983  28.173  0.00  0.00    +0.290 C 
ATOM     10  O4  UNL     1      10.293 -11.309  28.572  0.00  0.00    -0.266 OA
ATOM     11  C9  UNL     1       8.780 -15.466  25.725  0.00  0.00    +0.037 C 
ATOM     12  C10 UNL     1       8.219 -16.800  25.234  0.00  0.00    +0.005 C 
ATOM     13  C11 UNL     1       6.887 -16.580  24.528  0.00  0.00    +0.005 C 
ATOM     14  C12 UNL     1       5.848 -16.042  25.514  0.00  0.00    +0.038 C 
ENDROOT
BRANCH   1  16
ATOM     15  O1  UNL     1       7.339  -9.479  28.762  0.00  0.00    -0.143 OA
ATOM     16  N1  UNL     1       7.338 -10.647  29.199  0.00  0.00    -0.025 NA
ENDBRANCH   1  16
BRANCH   4  17
ATOM     17  N2  UNL     1       4.000 -14.261  26.984  0.00  0.00    -0.128 N 
BRANCH  17  18
ATOM     18  O2  UNL     1       3.320 -14.581  28.112  0.00  0.00    -0.262 OA
ATOM     19  H2  UNL     1       3.048 -13.711  28.501  0.00  0.00    +0.247 HD
ENDBRANCH  17  18
BRANCH  17  20
ATOM     20  O3  UNL     1       3.312 -14.119  25.825  0.00  0.00    -0.262 OA
ATOM     21  H3  UNL     1       2.987 -13.182  25.832  0.00  0.00    +0.247 HD
ENDBRANCH  17  20
ENDBRANCH   4  17
TORSDOF 4
ENDMDL
MODEL 4
REMARK minimizedAffinity -5.45943594
REMARK minimizedRMSD -1
REMARK  Name = /home/tchapet/Post-Doc/ARTICLES-DOSSIERS-DES-ARTICLES-EN-REDACTION/NOUVELS-AXES-DE-RECHERCHE-A-REGARDER-URGEMMENT/ARTICLES-EN-REDACTIONS/ARTICLE_MVOTO/Paper2_Sensors_ActuatorsB/docking_rerun/ligands/4550.pdb
REMARK  4 active torsions:
REMARK  status: ('A' for Active; 'I' for Inactive)
REMARK    1  A    between atoms: N1_2  and  C1_3
REMARK    2  A    between atoms: C4_6  and  N2_7
REMARK    3  A    between atoms: N2_7  and  O2_8
REMARK    4  A    between atoms: N2_7  and  O3_9
REMARK                            x       y       z     vdW  Elec       q    Type
REMARK                         _______ _______ _______ _____ _____    ______ ____
ROOT
ATOM      1  C1  UNL     1       2.844  -1.940   1.004  0.00  0.00    +0.180 C 
ATOM      2  C2  UNL     1       1.569  -1.858   1.337  0.00  0.00    +0.034 A 
ATOM      3  C3  UNL     1       0.692  -0.792   1.181  0.00  0.00    +0.043 A 
ATOM      4  C4  UNL     1      -0.640  -0.934   1.618  0.00  0.00    +0.099 A 
ATOM      5  C5  UNL     1      -1.080  -2.180   2.171  0.00  0.00    -0.014 A 
ATOM      6  C6  UNL     1      -0.147  -3.246   2.347  0.00  0.00    -0.018 A 
ATOM      7  C7  UNL     1       1.169  -3.057   1.906  0.00  0.00    +0.070 A 
ATOM      8  N3  UNL     1       2.117  -3.944   1.966  0.00  0.00    -0.174 NA
ATOM      9  C8  UNL     1       3.239  -3.278   1.395  0.00  0.00    +0.290 C 
ATOM     10  O4  UNL     1       4.378  -3.794   1.263  0.00  0.00    -0.266 OA
ATOM     11  C9  UNL     1      -0.560  -4.600   2.885  0.00  0.00    +0.037 C 
ATOM     12  C10 UNL     1      -1.906  -4.566   3.608  0.00  0.00    +0.005 C 
ATOM     13  C11 UNL     1      -2.935  -3.820   2.766  0.00  0.00    +0.005 C 
ATOM     14  C12 UNL     1      -2.524  -2.355   2.605  0.00  0.00    +0.038 C 
ENDROOT
BRANCH   1  16
ATOM     15  O1  UNL     1       3.676  -0.803  -0.850  0.00  0.00    -0.143 OA
ATOM     16  N1  UNL     1       3.636  -0.922   0.390  0.00  0.00    -0.025 NA
ENDBRANCH   1  16
BRANCH   4  17
ATOM     17  N2  UNL     1      -1.526   0.196   1.490  0.00  0.00    -0.128 N 
BRANCH  17  18
ATOM     18  O2  UNL     1      -2.289   0.364   0.383  0.00  0.00    -0.262 OA
ATOM     19  H2  UNL     1      -3.128  -0.129   0.576  0.00  0.00    +0.247 HD
ENDBRANCH  17  18
BRANCH  17  20
ATOM     20  O3  UNL     1      -1.646   1.084   2.508  0.00  0.00    -0.262 OA
ATOM     21  H3  UNL     1      -2.409   0.753   3.048  0.00  0.00    +0.247 HD
ENDBRANCH  17  20
ENDBRANCH   4  17
TORSDOF 4
ENDMDL
MODEL 5
REMARK minimizedAffinity -5.43008184
REMARK minimizedRMSD -1
REMARK  Name = /home/tchapet/Post-Doc/ARTICLES-DOSSIERS-DES-ARTICLES-EN-REDACTION/NOUVELS-AXES-DE-RECHERCHE-A-REGARDER-URGEMMENT/ARTICLES-EN-REDACTIONS/ARTICLE_MVOTO/Paper2_Sensors_ActuatorsB/docking_rerun/ligands/4550.pdb
REMARK  4 active torsions:
REMARK  status: ('A' for Active; 'I' for Inactive)
REMARK    1  A    between atoms: N1_2  and  C1_3
REMARK    2  A    between atoms: C4_6  and  N2_7
REMARK    3  A    between atoms: N2_7  and  O2_8
REMARK    4  A    between atoms: N2_7  and  O3_9
REMARK                            x       y       z     vdW  Elec       q    Type
REMARK                         _______ _______ _______ _____ _____    ______ ____
ROOT
ATOM      1  C1  UNL     1      -1.414  -2.227   2.364  0.00  0.00    +0.180 C 
ATOM      2  C2  UNL     1      -0.408  -3.076   2.470  0.00  0.00    +0.034 A 
ATOM      3  C3  UNL     1      -0.379  -4.324   3.080  0.00  0.00    +0.043 A 
ATOM      4  C4  UNL     1       0.822  -5.060   3.072  0.00  0.00    +0.099 A 
ATOM      5  C5  UNL     1       1.975  -4.536   2.402  0.00  0.00    -0.014 A 
ATOM      6  C6  UNL     1       1.922  -3.237   1.812  0.00  0.00    -0.018 A 
ATOM      7  C7  UNL     1       0.709  -2.538   1.852  0.00  0.00    +0.070 A 
ATOM      8  N3  UNL     1       0.500  -1.367   1.329  0.00  0.00    -0.174 NA
ATOM      9  C8  UNL     1      -0.867  -1.104   1.629  0.00  0.00    +0.290 C 
ATOM     10  O4  UNL     1      -1.478  -0.055   1.297  0.00  0.00    -0.266 OA
ATOM     11  C9  UNL     1       3.093  -2.648   1.052  0.00  0.00    +0.037 C 
ATOM     12  C10 UNL     1       4.414  -3.352   1.357  0.00  0.00    +0.005 C 
ATOM     13  C11 UNL     1       4.233  -4.864   1.271  0.00  0.00    +0.005 C 
ATOM     14  C12 UNL     1       3.261  -5.342   2.351  0.00  0.00    +0.038 C 
ENDROOT
BRANCH   1  16
ATOM     15  O1  UNL     1      -3.667  -2.762   2.114  0.00  0.00    -0.143 OA
ATOM     16  N1  UNL     1      -2.739  -2.402   2.866  0.00  0.00    -0.025 NA
ENDBRANCH   1  16
BRANCH   4  17
ATOM     17  N2  UNL     1       0.849  -6.333   3.747  0.00  0.00    -0.128 N 
BRANCH  17  18
ATOM     18  O2  UNL     1       0.953  -6.407   5.096  0.00  0.00    -0.262 OA
ATOM     19  H2  UNL     1       0.018  -6.379   5.425  0.00  0.00    +0.247 HD
ENDBRANCH  17  18
BRANCH  17  20
ATOM     20  O3  UNL     1       0.715  -7.482   3.038  0.00  0.00    -0.262 OA
ATOM     21  H3  UNL     1      -0.257  -7.679   3.050  0.00  0.00    +0.247 HD
ENDBRANCH  17  20
ENDBRANCH   4  17
TORSDOF 4
ENDMDL
MODEL 6
REMARK minimizedAffinity -5.38425398
REMARK minimizedRMSD -1
REMARK  Name = /home/tchapet/Post-Doc/ARTICLES-DOSSIERS-DES-ARTICLES-EN-REDACTION/NOUVELS-AXES-DE-RECHERCHE-A-REGARDER-URGEMMENT/ARTICLES-EN-REDACTIONS/ARTICLE_MVOTO/Paper2_Sensors_ActuatorsB/docking_rerun/ligands/4550.pdb
REMARK  4 active torsions:
REMARK  status: ('A' for Active; 'I' for Inactive)
REMARK    1  A    between atoms: N1_2  and  C1_3
REMARK    2  A    between atoms: C4_6  and  N2_7
REMARK    3  A    between atoms: N2_7  and  O2_8
REMARK    4  A    between atoms: N2_7  and  O3_9
REMARK                            x       y       z     vdW  Elec       q    Type
REMARK                         _______ _______ _______ _____ _____    ______ ____
ROOT
ATOM      1  C1  UNL     1      -4.319 -15.340  18.551  0.00  0.00    +0.180 C 
ATOM      2  C2  UNL     1      -3.132 -14.762  18.537  0.00  0.00    +0.034 A 
ATOM      3  C3  UNL     1      -1.919 -15.245  19.012  0.00  0.00    +0.043 A 
ATOM      4  C4  UNL     1      -0.769 -14.440  18.890  0.00  0.00    +0.099 A 
ATOM      5  C5  UNL     1      -0.856 -13.164  18.244  0.00  0.00    -0.014 A 
ATOM      6  C6  UNL     1      -2.123 -12.683  17.795  0.00  0.00    -0.018 A 
ATOM      7  C7  UNL     1      -3.241 -13.514  17.944  0.00  0.00    +0.070 A 
ATOM      8  N3  UNL     1      -4.447 -13.228  17.554  0.00  0.00    -0.174 NA
ATOM      9  C8  UNL     1      -5.201 -14.379  17.922  0.00  0.00    +0.290 C 
ATOM     10  O4  UNL     1      -6.436 -14.512  17.719  0.00  0.00    -0.266 OA
ATOM     11  C9  UNL     1      -2.273 -11.364  17.066  0.00  0.00    +0.037 C 
ATOM     12  C10 UNL     1      -1.070 -10.441  17.254  0.00  0.00    +0.005 C 
ATOM     13  C11 UNL     1       0.224 -11.212  17.017  0.00  0.00    +0.005 C 
ATOM     14  C12 UNL     1       0.386 -12.310  18.070  0.00  0.00    +0.038 C 
ENDROOT
BRANCH   1  16
ATOM     15  O1  UNL     1      -5.269 -16.754  20.140  0.00  0.00    -0.143 OA
ATOM     16  N1  UNL     1      -4.636 -16.632  19.072  0.00  0.00    -0.025 NA
ENDBRANCH   1  16
BRANCH   4  17
ATOM     17  N2  UNL     1       0.473 -14.936  19.427  0.00  0.00    -0.128 N 
BRANCH  17  18
ATOM     18  O2  UNL     1       0.871 -14.612  20.682  0.00  0.00    -0.262 OA
ATOM     19  H2  UNL     1       0.471 -15.309  21.263  0.00  0.00    +0.247 HD
ENDBRANCH  17  18
BRANCH  17  20
ATOM     20  O3  UNL     1       1.239 -15.784  18.697  0.00  0.00    -0.262 OA
ATOM     21  H3  UNL     1       0.946 -16.692  18.968  0.00  0.00    +0.247 HD
ENDBRANCH  17  20
ENDBRANCH   4  17
TORSDOF 4
ENDMDL
MODEL 7
REMARK minimizedAffinity -5.37632847
REMARK minimizedRMSD -1
REMARK  Name = /home/tchapet/Post-Doc/ARTICLES-DOSSIERS-DES-ARTICLES-EN-REDACTION/NOUVELS-AXES-DE-RECHERCHE-A-REGARDER-URGEMMENT/ARTICLES-EN-REDACTIONS/ARTICLE_MVOTO/Paper2_Sensors_ActuatorsB/docking_rerun/ligands/4550.pdb
REMARK  4 active torsions:
REMARK  status: ('A' for Active; 'I' for Inactive)
REMARK    1  A    between atoms: N1_2  and  C1_3
REMARK    2  A    between atoms: C4_6  and  N2_7
REMARK    3  A    between atoms: N2_7  and  O2_8
REMARK    4  A    between atoms: N2_7  and  O3_9
REMARK                            x       y       z     vdW  Elec       q    Type
REMARK                         _______ _______ _______ _____ _____    ______ ____
ROOT
ATOM      1  C1  UNL     1      -4.009 -15.841  16.283  0.00  0.00    +0.180 C 
ATOM      2  C2  UNL     1      -2.926 -15.105  16.116  0.00  0.00    +0.034 A 
ATOM      3  C3  UNL     1      -1.867 -15.297  15.237  0.00  0.00    +0.043 A 
ATOM      4  C4  UNL     1      -0.804 -14.371  15.237  0.00  0.00    +0.099 A 
ATOM      5  C5  UNL     1      -0.850 -13.232  16.104  0.00  0.00    -0.014 A 
ATOM      6  C6  UNL     1      -1.937 -13.081  17.018  0.00  0.00    -0.018 A 
ATOM      7  C7  UNL     1      -2.967 -14.029  16.988  0.00  0.00    +0.070 A 
ATOM      8  N3  UNL     1      -4.032 -14.005  17.732  0.00  0.00    -0.174 NA
ATOM      9  C8  UNL     1      -4.755 -15.161  17.323  0.00  0.00    +0.290 C 
ATOM     10  O4  UNL     1      -5.863 -15.513  17.805  0.00  0.00    -0.266 OA
ATOM     11  C9  UNL     1      -2.064 -11.876  17.928  0.00  0.00    +0.037 C 
ATOM     12  C10 UNL     1      -0.751 -11.111  18.087  0.00  0.00    +0.005 C 
ATOM     13  C11 UNL     1      -0.115 -10.874  16.722  0.00  0.00    +0.005 C 
ATOM     14  C12 UNL     1       0.270 -12.208  16.079  0.00  0.00    +0.038 C 
ENDROOT
BRANCH   1  16
ATOM     15  O1  UNL     1      -5.253 -17.035  14.717  0.00  0.00    -0.143 OA
ATOM     16  N1  UNL     1      -4.351 -17.035  15.579  0.00  0.00    -0.025 NA
ENDBRANCH   1  16
BRANCH   4  17
ATOM     17  N2  UNL     1       0.308 -14.608  14.351  0.00  0.00    -0.128 N 
BRANCH  17  18
ATOM     18  O2  UNL     1       0.444 -13.908  13.198  0.00  0.00    -0.262 OA
ATOM     19  H2  UNL     1       0.961 -13.101  13.450  0.00  0.00    +0.247 HD
ENDBRANCH  17  18
BRANCH  17  20
ATOM     20  O3  UNL     1       1.268 -15.503  14.688  0.00  0.00    -0.262 OA
ATOM     21  H3  UNL     1       1.963 -14.970  15.155  0.00  0.00    +0.247 HD
ENDBRANCH  17  20
ENDBRANCH   4  17
TORSDOF 4
ENDMDL
MODEL 8
REMARK minimizedAffinity -5.34965563
REMARK minimizedRMSD -1
REMARK  Name = /home/tchapet/Post-Doc/ARTICLES-DOSSIERS-DES-ARTICLES-EN-REDACTION/NOUVELS-AXES-DE-RECHERCHE-A-REGARDER-URGEMMENT/ARTICLES-EN-REDACTIONS/ARTICLE_MVOTO/Paper2_Sensors_ActuatorsB/docking_rerun/ligands/4550.pdb
REMARK  4 active torsions:
REMARK  status: ('A' for Active; 'I' for Inactive)
REMARK    1  A    between atoms: N1_2  and  C1_3
REMARK    2  A    between atoms: C4_6  and  N2_7
REMARK    3  A    between atoms: N2_7  and  O2_8
REMARK    4  A    between atoms: N2_7  and  O3_9
REMARK                            x       y       z     vdW  Elec       q    Type
REMARK                         _______ _______ _______ _____ _____    ______ ____
ROOT
ATOM      1  C1  UNL     1       3.394  -2.852   1.280  0.00  0.00    +0.180 C 
ATOM      2  C2  UNL     1       2.305  -3.376   1.814  0.00  0.00    +0.034 A 
ATOM      3  C3  UNL     1       2.164  -4.562   2.522  0.00  0.00    +0.043 A 
ATOM      4  C4  UNL     1       0.888  -4.924   2.999  0.00  0.00    +0.099 A 
ATOM      5  C5  UNL     1      -0.227  -4.051   2.787  0.00  0.00    -0.014 A 
ATOM      6  C6  UNL     1      -0.056  -2.855   2.027  0.00  0.00    -0.018 A 
ATOM      7  C7  UNL     1       1.229  -2.539   1.566  0.00  0.00    +0.070 A 
ATOM      8  N3  UNL     1       1.545  -1.472   0.894  0.00  0.00    -0.174 NA
ATOM      9  C8  UNL     1       2.944  -1.615   0.674  0.00  0.00    +0.290 C 
ATOM     10  O4  UNL     1       3.653  -0.783   0.051  0.00  0.00    -0.266 OA
ATOM     11  C9  UNL     1      -1.185  -1.870   1.806  0.00  0.00    +0.037 C 
ATOM     12  C10 UNL     1      -2.562  -2.476   2.074  0.00  0.00    +0.005 C 
ATOM     13  C11 UNL     1      -2.555  -3.224   3.403  0.00  0.00    +0.005 C 
ATOM     14  C12 UNL     1      -1.596  -4.414   3.335  0.00  0.00    +0.038 C 
ENDROOT
BRANCH   1  16
ATOM     15  O1  UNL     1       5.095  -4.199   0.435  0.00  0.00    -0.143 OA
ATOM     16  N1  UNL     1       4.712  -3.400   1.313  0.00  0.00    -0.025 NA
ENDBRANCH   1  16
BRANCH   4  17
ATOM     17  N2  UNL     1       0.750  -6.179   3.695  0.00  0.00    -0.128 N 
BRANCH  17  18
ATOM     18  O2  UNL     1       0.775  -6.235   5.049  0.00  0.00    -0.262 OA
ATOM     19  H2  UNL     1      -0.168  -6.105   5.326  0.00  0.00    +0.247 HD
ENDBRANCH  17  18
BRANCH  17  20
ATOM     20  O3  UNL     1       0.537  -7.323   2.999  0.00  0.00    -0.262 OA
ATOM     21  H3  UNL     1      -0.449  -7.420   2.961  0.00  0.00    +0.247 HD
ENDBRANCH  17  20
ENDBRANCH   4  17
TORSDOF 4
ENDMDL
MODEL 9
REMARK minimizedAffinity -5.34513235
REMARK minimizedRMSD -1
REMARK  Name = /home/tchapet/Post-Doc/ARTICLES-DOSSIERS-DES-ARTICLES-EN-REDACTION/NOUVELS-AXES-DE-RECHERCHE-A-REGARDER-URGEMMENT/ARTICLES-EN-REDACTIONS/ARTICLE_MVOTO/Paper2_Sensors_ActuatorsB/docking_rerun/ligands/4550.pdb
REMARK  4 active torsions:
REMARK  status: ('A' for Active; 'I' for Inactive)
REMARK    1  A    between atoms: N1_2  and  C1_3
REMARK    2  A    between atoms: C4_6  and  N2_7
REMARK    3  A    between atoms: N2_7  and  O2_8
REMARK    4  A    between atoms: N2_7  and  O3_9
REMARK                            x       y       z     vdW  Elec       q    Type
REMARK                         _______ _______ _______ _____ _____    ______ ____
ROOT
ATOM      1  C1  UNL     1      -9.535   3.424  17.402  0.00  0.00    +0.180 C 
ATOM      2  C2  UNL     1      -8.871   4.558  17.268  0.00  0.00    +0.034 A 
ATOM      3  C3  UNL     1      -8.348   5.133  16.117  0.00  0.00    +0.043 A 
ATOM      4  C4  UNL     1      -7.668   6.363  16.217  0.00  0.00    +0.099 A 
ATOM      5  C5  UNL     1      -7.564   7.020  17.486  0.00  0.00    -0.014 A 
ATOM      6  C6  UNL     1      -8.085   6.388  18.655  0.00  0.00    -0.018 A 
ATOM      7  C7  UNL     1      -8.746   5.162  18.509  0.00  0.00    +0.070 A 
ATOM      8  N3  UNL     1      -9.300   4.487  19.473  0.00  0.00    -0.174 NA
ATOM      9  C8  UNL     1      -9.832   3.340  18.818  0.00  0.00    +0.290 C 
ATOM     10  O4  UNL     1     -10.458   2.417  19.400  0.00  0.00    -0.266 OA
ATOM     11  C9  UNL     1      -8.045   7.051  20.016  0.00  0.00    +0.037 C 
ATOM     12  C10 UNL     1      -7.040   8.199  20.089  0.00  0.00    +0.005 C 
ATOM     13  C11 UNL     1      -7.206   9.118  18.884  0.00  0.00    +0.005 C 
ATOM     14  C12 UNL     1      -6.870   8.366  17.595  0.00  0.00    +0.038 C 
ENDROOT
BRANCH   1  16
ATOM     15  O1  UNL     1     -11.026   2.480  15.882  0.00  0.00    -0.143 OA
ATOM     16  N1  UNL     1      -9.876   2.504  16.365  0.00  0.00    -0.025 NA
ENDBRANCH   1  16
BRANCH   4  17
ATOM     17  N2  UNL     1      -7.092   6.925  15.021  0.00  0.00    -0.128 N 
BRANCH  17  18
ATOM     18  O2  UNL     1      -5.835   6.600  14.631  0.00  0.00    -0.262 OA
ATOM     19  H2  UNL     1      -5.946   5.794  14.064  0.00  0.00    +0.247 HD
ENDBRANCH  17  18
BRANCH  17  20
ATOM     20  O3  UNL     1      -7.826   7.752  14.236  0.00  0.00    -0.262 OA
ATOM     21  H3  UNL     1      -8.246   7.159  13.561  0.00  0.00    +0.247 HD
ENDBRANCH  17  20
ENDBRANCH   4  17
TORSDOF 4
ENDMDL
