MODEL 1
REMARK minimizedAffinity -7.13272524
REMARK minimizedRMSD -1
REMARK  Name = /home/tchapet/Post-Doc/ARTICLES-DOSSIERS-DES-ARTICLES-EN-REDACTION/NOUVELS-AXES-DE-RECHERCHE-A-REGARDER-URGEMMENT/ARTICLES-EN-REDACTIONS/ARTICLE_MVOTO/Paper2_JCIM/docking_rerun/ligands/9168.pdb
REMARK  0 active torsions:
REMARK  status: ('A' for Active; 'I' for Inactive)
REMARK                            x       y       z     vdW  Elec       q    Type
REMARK                         _______ _______ _______ _____ _____    ______ ____
ROOT
ATOM      1  C1  UNL     1       5.774  -7.543  38.945  0.00  0.00    +0.001 A 
ATOM      2  C2  UNL     1       6.251  -6.333  39.437  0.00  0.00    +0.001 A 
ATOM      3  C3  UNL     1       6.517  -5.286  38.561  0.00  0.00    +0.008 A 
ATOM      4  C4  UNL     1       6.307  -5.441  37.180  0.00  0.00    -0.017 A 
ATOM      5  C5  UNL     1       5.821  -6.666  36.655  0.00  0.00    -0.010 A 
ATOM      6  C6  UNL     1       5.559  -7.716  37.576  0.00  0.00    +0.009 A 
ATOM      7  C7  UNL     1       5.619  -6.789  35.240  0.00  0.00    -0.010 A 
ATOM      8  C8  UNL     1       5.140  -7.977  34.663  0.00  0.00    +0.010 A 
ATOM      9  C9  UNL     1       4.944  -8.099  33.297  0.00  0.00    +0.010 A 
ATOM     10  C10 UNL     1       5.213  -7.040  32.408  0.00  0.00    -0.010 A 
ATOM     11  C11 UNL     1       5.700  -5.816  32.956  0.00  0.00    -0.010 A 
ATOM     12  C12 UNL     1       5.905  -5.688  34.375  0.00  0.00    -0.010 A 
ATOM     13  C13 UNL     1       6.388  -4.492  34.960  0.00  0.00    +0.010 A 
ATOM     14  C14 UNL     1       6.582  -4.376  36.329  0.00  0.00    +0.009 A 
ATOM     15  C15 UNL     1       5.969  -4.757  32.066  0.00  0.00    +0.010 A 
ATOM     16  C16 UNL     1       5.773  -4.878  30.700  0.00  0.00    +0.010 A 
ATOM     17  C17 UNL     1       5.294  -6.067  30.123  0.00  0.00    -0.010 A 
ATOM     18  C18 UNL     1       5.008  -7.168  30.988  0.00  0.00    -0.010 A 
ATOM     19  C19 UNL     1       4.525  -8.364  30.403  0.00  0.00    +0.010 A 
ATOM     20  C20 UNL     1       4.331  -8.479  29.034  0.00  0.00    +0.009 A 
ATOM     21  C21 UNL     1       4.605  -7.415  28.183  0.00  0.00    -0.017 A 
ATOM     22  C22 UNL     1       5.091  -6.188  28.708  0.00  0.00    -0.010 A 
ATOM     23  C23 UNL     1       5.353  -5.140  27.788  0.00  0.00    +0.009 A 
ATOM     24  C24 UNL     1       5.139  -5.311  26.418  0.00  0.00    +0.001 A 
ATOM     25  C25 UNL     1       4.662  -6.522  25.927  0.00  0.00    +0.001 A 
ATOM     26  C26 UNL     1       4.396  -7.570  26.802  0.00  0.00    +0.008 A 
ENDROOT
TORSDOF 0
ENDMDL
MODEL 2
REMARK minimizedAffinity -7.07664728
REMARK minimizedRMSD -1
REMARK  Name = /home/tchapet/Post-Doc/ARTICLES-DOSSIERS-DES-ARTICLES-EN-REDACTION/NOUVELS-AXES-DE-RECHERCHE-A-REGARDER-URGEMMENT/ARTICLES-EN-REDACTIONS/ARTICLE_MVOTO/Paper2_JCIM/docking_rerun/ligands/9168.pdb
REMARK  0 active torsions:
REMARK  status: ('A' for Active; 'I' for Inactive)
REMARK                            x       y       z     vdW  Elec       q    Type
REMARK                         _______ _______ _______ _____ _____    ______ ____
ROOT
ATOM      1  C1  UNL     1       5.022  -5.248  26.438  0.00  0.00    +0.001 A 
ATOM      2  C2  UNL     1       4.552  -6.453  25.926  0.00  0.00    +0.001 A 
ATOM      3  C3  UNL     1       4.303  -7.520  26.784  0.00  0.00    +0.008 A 
ATOM      4  C4  UNL     1       4.524  -7.390  28.165  0.00  0.00    -0.017 A 
ATOM      5  C5  UNL     1       5.002  -6.171  28.710  0.00  0.00    -0.010 A 
ATOM      6  C6  UNL     1       5.246  -5.100  27.809  0.00  0.00    +0.009 A 
ATOM      7  C7  UNL     1       5.216  -6.074  30.126  0.00  0.00    -0.010 A 
ATOM      8  C8  UNL     1       5.688  -4.893  30.722  0.00  0.00    +0.010 A 
ATOM      9  C9  UNL     1       5.896  -4.796  32.088  0.00  0.00    +0.010 A 
ATOM     10  C10 UNL     1       5.645  -5.875  32.959  0.00  0.00    -0.010 A 
ATOM     11  C11 UNL     1       5.163  -7.092  32.391  0.00  0.00    -0.010 A 
ATOM     12  C12 UNL     1       4.947  -7.195  30.971  0.00  0.00    -0.010 A 
ATOM     13  C13 UNL     1       4.471  -8.384  30.367  0.00  0.00    +0.010 A 
ATOM     14  C14 UNL     1       4.265  -8.473  28.998  0.00  0.00    +0.009 A 
ATOM     15  C15 UNL     1       4.912  -8.171  33.262  0.00  0.00    +0.010 A 
ATOM     16  C16 UNL     1       5.119  -8.075  34.628  0.00  0.00    +0.010 A 
ATOM     17  C17 UNL     1       5.592  -6.893  35.225  0.00  0.00    -0.010 A 
ATOM     18  C18 UNL     1       5.860  -5.773  34.379  0.00  0.00    -0.010 A 
ATOM     19  C19 UNL     1       6.336  -4.584  34.983  0.00  0.00    +0.010 A 
ATOM     20  C20 UNL     1       6.542  -4.494  36.353  0.00  0.00    +0.009 A 
ATOM     21  C21 UNL     1       6.284  -5.577  37.185  0.00  0.00    -0.017 A 
ATOM     22  C22 UNL     1       5.804  -6.797  36.640  0.00  0.00    -0.010 A 
ATOM     23  C23 UNL     1       5.561  -7.867  37.542  0.00  0.00    +0.009 A 
ATOM     24  C24 UNL     1       5.785  -7.720  38.913  0.00  0.00    +0.001 A 
ATOM     25  C25 UNL     1       6.256  -6.514  39.424  0.00  0.00    +0.001 A 
ATOM     26  C26 UNL     1       6.504  -5.447  38.567  0.00  0.00    +0.008 A 
ENDROOT
TORSDOF 0
ENDMDL
MODEL 3
REMARK minimizedAffinity -7.03056955
REMARK minimizedRMSD -1
REMARK  Name = /home/tchapet/Post-Doc/ARTICLES-DOSSIERS-DES-ARTICLES-EN-REDACTION/NOUVELS-AXES-DE-RECHERCHE-A-REGARDER-URGEMMENT/ARTICLES-EN-REDACTIONS/ARTICLE_MVOTO/Paper2_JCIM/docking_rerun/ligands/9168.pdb
REMARK  0 active torsions:
REMARK  status: ('A' for Active; 'I' for Inactive)
REMARK                            x       y       z     vdW  Elec       q    Type
REMARK                         _______ _______ _______ _____ _____    ______ ____
ROOT
ATOM      1  C1  UNL     1      27.205 -10.738  34.798  0.00  0.00    +0.001 A 
ATOM      2  C2  UNL     1      27.151 -10.499  33.429  0.00  0.00    +0.001 A 
ATOM      3  C3  UNL     1      25.929 -10.545  32.765  0.00  0.00    +0.008 A 
ATOM      4  C4  UNL     1      24.747 -10.833  33.468  0.00  0.00    -0.017 A 
ATOM      5  C5  UNL     1      24.778 -11.080  34.865  0.00  0.00    -0.010 A 
ATOM      6  C6  UNL     1      26.041 -11.025  35.513  0.00  0.00    +0.009 A 
ATOM      7  C7  UNL     1      23.551 -11.370  35.550  0.00  0.00    -0.010 A 
ATOM      8  C8  UNL     1      23.519 -11.622  36.932  0.00  0.00    +0.010 A 
ATOM      9  C9  UNL     1      22.336 -11.903  37.596  0.00  0.00    +0.010 A 
ATOM     10  C10 UNL     1      21.098 -11.951  36.927  0.00  0.00    -0.010 A 
ATOM     11  C11 UNL     1      21.089 -11.699  35.522  0.00  0.00    -0.010 A 
ATOM     12  C12 UNL     1      22.317 -11.408  34.830  0.00  0.00    -0.010 A 
ATOM     13  C13 UNL     1      22.353 -11.153  33.437  0.00  0.00    +0.010 A 
ATOM     14  C14 UNL     1      23.541 -10.872  32.778  0.00  0.00    +0.009 A 
ATOM     15  C15 UNL     1      19.850 -11.747  34.853  0.00  0.00    +0.010 A 
ATOM     16  C16 UNL     1      18.667 -12.027  35.517  0.00  0.00    +0.010 A 
ATOM     17  C17 UNL     1      18.636 -12.280  36.899  0.00  0.00    -0.010 A 
ATOM     18  C18 UNL     1      19.870 -12.242  37.619  0.00  0.00    -0.010 A 
ATOM     19  C19 UNL     1      19.834 -12.497  39.012  0.00  0.00    +0.010 A 
ATOM     20  C20 UNL     1      18.646 -12.778  39.671  0.00  0.00    +0.009 A 
ATOM     21  C21 UNL     1      17.439 -12.817  38.981  0.00  0.00    -0.017 A 
ATOM     22  C22 UNL     1      17.408 -12.570  37.583  0.00  0.00    -0.010 A 
ATOM     23  C23 UNL     1      16.146 -12.625  36.936  0.00  0.00    +0.009 A 
ATOM     24  C24 UNL     1      14.981 -12.912  37.651  0.00  0.00    +0.001 A 
ATOM     25  C25 UNL     1      15.035 -13.151  39.020  0.00  0.00    +0.001 A 
ATOM     26  C26 UNL     1      16.257 -13.104  39.684  0.00  0.00    +0.008 A 
ENDROOT
TORSDOF 0
ENDMDL
MODEL 4
REMARK minimizedAffinity -6.98090792
REMARK minimizedRMSD -1
REMARK  Name = /home/tchapet/Post-Doc/ARTICLES-DOSSIERS-DES-ARTICLES-EN-REDACTION/NOUVELS-AXES-DE-RECHERCHE-A-REGARDER-URGEMMENT/ARTICLES-EN-REDACTIONS/ARTICLE_MVOTO/Paper2_JCIM/docking_rerun/ligands/9168.pdb
REMARK  0 active torsions:
REMARK  status: ('A' for Active; 'I' for Inactive)
REMARK                            x       y       z     vdW  Elec       q    Type
REMARK                         _______ _______ _______ _____ _____    ______ ____
ROOT
ATOM      1  C1  UNL     1      15.042 -13.128  37.707  0.00  0.00    +0.001 A 
ATOM      2  C2  UNL     1      15.117 -13.360  39.076  0.00  0.00    +0.001 A 
ATOM      3  C3  UNL     1      16.344 -13.279  39.726  0.00  0.00    +0.008 A 
ATOM      4  C4  UNL     1      17.511 -12.965  39.010  0.00  0.00    -0.017 A 
ATOM      5  C5  UNL     1      17.459 -12.723  37.612  0.00  0.00    -0.010 A 
ATOM      6  C6  UNL     1      16.191 -12.813  36.978  0.00  0.00    +0.009 A 
ATOM      7  C7  UNL     1      18.671 -12.404  36.913  0.00  0.00    -0.010 A 
ATOM      8  C8  UNL     1      18.681 -12.155  35.531  0.00  0.00    +0.010 A 
ATOM      9  C9  UNL     1      19.849 -11.848  34.852  0.00  0.00    +0.010 A 
ATOM     10  C10 UNL     1      21.094 -11.766  35.508  0.00  0.00    -0.010 A 
ATOM     11  C11 UNL     1      21.124 -12.011  36.914  0.00  0.00    -0.010 A 
ATOM     12  C12 UNL     1      19.911 -12.332  37.620  0.00  0.00    -0.010 A 
ATOM     13  C13 UNL     1      19.896 -12.583  39.014  0.00  0.00    +0.010 A 
ATOM     14  C14 UNL     1      18.723 -12.891  39.687  0.00  0.00    +0.009 A 
ATOM     15  C15 UNL     1      22.368 -11.929  37.570  0.00  0.00    +0.010 A 
ATOM     16  C16 UNL     1      23.536 -11.621  36.892  0.00  0.00    +0.010 A 
ATOM     17  C17 UNL     1      23.546 -11.372  35.509  0.00  0.00    -0.010 A 
ATOM     18  C18 UNL     1      22.306 -11.445  34.802  0.00  0.00    -0.010 A 
ATOM     19  C19 UNL     1      22.321 -11.194  33.408  0.00  0.00    +0.010 A 
ATOM     20  C20 UNL     1      23.494 -10.886  32.735  0.00  0.00    +0.009 A 
ATOM     21  C21 UNL     1      24.706 -10.812  33.413  0.00  0.00    -0.017 A 
ATOM     22  C22 UNL     1      24.758 -11.053  34.811  0.00  0.00    -0.010 A 
ATOM     23  C23 UNL     1      26.026 -10.963  35.444  0.00  0.00    +0.009 A 
ATOM     24  C24 UNL     1      27.175 -10.648  34.716  0.00  0.00    +0.001 A 
ATOM     25  C25 UNL     1      27.100 -10.416  33.346  0.00  0.00    +0.001 A 
ATOM     26  C26 UNL     1      25.873 -10.497  32.696  0.00  0.00    +0.008 A 
ENDROOT
TORSDOF 0
ENDMDL
MODEL 5
REMARK minimizedAffinity -6.7992239
REMARK minimizedRMSD -1
REMARK  Name = /home/tchapet/Post-Doc/ARTICLES-DOSSIERS-DES-ARTICLES-EN-REDACTION/NOUVELS-AXES-DE-RECHERCHE-A-REGARDER-URGEMMENT/ARTICLES-EN-REDACTIONS/ARTICLE_MVOTO/Paper2_JCIM/docking_rerun/ligands/9168.pdb
REMARK  0 active torsions:
REMARK  status: ('A' for Active; 'I' for Inactive)
REMARK                            x       y       z     vdW  Elec       q    Type
REMARK                         _______ _______ _______ _____ _____    ______ ____
ROOT
ATOM      1  C1  UNL     1       7.342  13.159  16.427  0.00  0.00    +0.001 A 
ATOM      2  C2  UNL     1       6.633  11.965  16.500  0.00  0.00    +0.001 A 
ATOM      3  C3  UNL     1       5.812  11.713  17.595  0.00  0.00    +0.008 A 
ATOM      4  C4  UNL     1       5.694  12.657  18.629  0.00  0.00    -0.017 A 
ATOM      5  C5  UNL     1       6.408  13.882  18.576  0.00  0.00    -0.010 A 
ATOM      6  C6  UNL     1       7.238  14.109  17.445  0.00  0.00    +0.009 A 
ATOM      7  C7  UNL     1       6.264  14.822  19.650  0.00  0.00    -0.010 A 
ATOM      8  C8  UNL     1       6.945  16.051  19.652  0.00  0.00    +0.010 A 
ATOM      9  C9  UNL     1       6.808  16.961  20.688  0.00  0.00    +0.010 A 
ATOM     10  C10 UNL     1       5.977  16.708  21.798  0.00  0.00    -0.010 A 
ATOM     11  C11 UNL     1       5.267  15.471  21.832  0.00  0.00    -0.010 A 
ATOM     12  C12 UNL     1       5.409  14.524  20.757  0.00  0.00    -0.010 A 
ATOM     13  C13 UNL     1       4.724  13.285  20.751  0.00  0.00    +0.010 A 
ATOM     14  C14 UNL     1       4.866  12.378  19.710  0.00  0.00    +0.009 A 
ATOM     15  C15 UNL     1       4.437  15.218  22.941  0.00  0.00    +0.010 A 
ATOM     16  C16 UNL     1       4.299  16.128  23.978  0.00  0.00    +0.010 A 
ATOM     17  C17 UNL     1       4.981  17.357  23.980  0.00  0.00    -0.010 A 
ATOM     18  C18 UNL     1       5.836  17.656  22.873  0.00  0.00    -0.010 A 
ATOM     19  C19 UNL     1       6.521  18.895  22.879  0.00  0.00    +0.010 A 
ATOM     20  C20 UNL     1       6.379  19.801  23.919  0.00  0.00    +0.009 A 
ATOM     21  C21 UNL     1       5.551  19.522  25.000  0.00  0.00    -0.017 A 
ATOM     22  C22 UNL     1       4.836  18.297  25.054  0.00  0.00    -0.010 A 
ATOM     23  C23 UNL     1       4.007  18.070  26.184  0.00  0.00    +0.009 A 
ATOM     24  C24 UNL     1       3.902  19.020  27.203  0.00  0.00    +0.001 A 
ATOM     25  C25 UNL     1       4.612  20.214  27.129  0.00  0.00    +0.001 A 
ATOM     26  C26 UNL     1       5.433  20.466  26.035  0.00  0.00    +0.008 A 
ENDROOT
TORSDOF 0
ENDMDL
MODEL 6
REMARK minimizedAffinity -6.78711796
REMARK minimizedRMSD -1
REMARK  Name = /home/tchapet/Post-Doc/ARTICLES-DOSSIERS-DES-ARTICLES-EN-REDACTION/NOUVELS-AXES-DE-RECHERCHE-A-REGARDER-URGEMMENT/ARTICLES-EN-REDACTIONS/ARTICLE_MVOTO/Paper2_JCIM/docking_rerun/ligands/9168.pdb
REMARK  0 active torsions:
REMARK  status: ('A' for Active; 'I' for Inactive)
REMARK                            x       y       z     vdW  Elec       q    Type
REMARK                         _______ _______ _______ _____ _____    ______ ____
ROOT
ATOM      1  C1  UNL     1       4.001  19.077  27.190  0.00  0.00    +0.001 A 
ATOM      2  C2  UNL     1       4.715  20.268  27.105  0.00  0.00    +0.001 A 
ATOM      3  C3  UNL     1       5.528  20.511  26.002  0.00  0.00    +0.008 A 
ATOM      4  C4  UNL     1       5.636  19.560  24.973  0.00  0.00    -0.017 A 
ATOM      5  C5  UNL     1       4.918  18.338  25.039  0.00  0.00    -0.010 A 
ATOM      6  C6  UNL     1       4.096  18.121  26.177  0.00  0.00    +0.009 A 
ATOM      7  C7  UNL     1       5.052  17.391  23.970  0.00  0.00    -0.010 A 
ATOM      8  C8  UNL     1       4.366  16.165  23.979  0.00  0.00    +0.010 A 
ATOM      9  C9  UNL     1       4.494  15.248  22.949  0.00  0.00    +0.010 A 
ATOM     10  C10 UNL     1       5.317  15.491  21.832  0.00  0.00    -0.010 A 
ATOM     11  C11 UNL     1       6.030  16.726  21.785  0.00  0.00    -0.010 A 
ATOM     12  C12 UNL     1       5.899  17.680  22.855  0.00  0.00    -0.010 A 
ATOM     13  C13 UNL     1       6.589  18.917  22.849  0.00  0.00    +0.010 A 
ATOM     14  C14 UNL     1       6.456  19.831  23.884  0.00  0.00    +0.009 A 
ATOM     15  C15 UNL     1       6.853  16.969  20.668  0.00  0.00    +0.010 A 
ATOM     16  C16 UNL     1       6.981  16.052  19.637  0.00  0.00    +0.010 A 
ATOM     17  C17 UNL     1       6.295  14.826  19.647  0.00  0.00    -0.010 A 
ATOM     18  C18 UNL     1       5.448  14.536  20.761  0.00  0.00    -0.010 A 
ATOM     19  C19 UNL     1       4.758  13.300  20.768  0.00  0.00    +0.010 A 
ATOM     20  C20 UNL     1       4.890  12.386  19.733  0.00  0.00    +0.009 A 
ATOM     21  C21 UNL     1       5.711  12.656  18.643  0.00  0.00    -0.017 A 
ATOM     22  C22 UNL     1       6.429  13.879  18.577  0.00  0.00    -0.010 A 
ATOM     23  C23 UNL     1       7.251  14.096  17.440  0.00  0.00    +0.009 A 
ATOM     24  C24 UNL     1       7.345  13.140  16.426  0.00  0.00    +0.001 A 
ATOM     25  C25 UNL     1       6.632  11.948  16.512  0.00  0.00    +0.001 A 
ATOM     26  C26 UNL     1       5.819  11.705  17.614  0.00  0.00    +0.008 A 
ENDROOT
TORSDOF 0
ENDMDL
MODEL 7
REMARK minimizedAffinity -6.71058607
REMARK minimizedRMSD -1
REMARK  Name = /home/tchapet/Post-Doc/ARTICLES-DOSSIERS-DES-ARTICLES-EN-REDACTION/NOUVELS-AXES-DE-RECHERCHE-A-REGARDER-URGEMMENT/ARTICLES-EN-REDACTIONS/ARTICLE_MVOTO/Paper2_JCIM/docking_rerun/ligands/9168.pdb
REMARK  0 active torsions:
REMARK  status: ('A' for Active; 'I' for Inactive)
REMARK                            x       y       z     vdW  Elec       q    Type
REMARK                         _______ _______ _______ _____ _____    ______ ____
ROOT
ATOM      1  C1  UNL     1       4.805  -7.965  29.059  0.00  0.00    +0.001 A 
ATOM      2  C2  UNL     1       5.280  -6.803  28.461  0.00  0.00    +0.001 A 
ATOM      3  C3  UNL     1       5.714  -5.744  29.251  0.00  0.00    +0.008 A 
ATOM      4  C4  UNL     1       5.676  -5.838  30.652  0.00  0.00    -0.017 A 
ATOM      5  C5  UNL     1       5.195  -7.013  31.286  0.00  0.00    -0.010 A 
ATOM      6  C6  UNL     1       4.759  -8.077  30.451  0.00  0.00    +0.009 A 
ATOM      7  C7  UNL     1       5.171  -7.074  32.719  0.00  0.00    -0.010 A 
ATOM      8  C8  UNL     1       4.707  -8.211  33.401  0.00  0.00    +0.010 A 
ATOM      9  C9  UNL     1       4.681  -8.273  34.785  0.00  0.00    +0.010 A 
ATOM     10  C10 UNL     1       5.120  -7.202  35.588  0.00  0.00    -0.010 A 
ATOM     11  C11 UNL     1       5.600  -6.030  34.932  0.00  0.00    -0.010 A 
ATOM     12  C12 UNL     1       5.627  -5.963  33.494  0.00  0.00    -0.010 A 
ATOM     13  C13 UNL     1       6.094  -4.819  32.802  0.00  0.00    +0.010 A 
ATOM     14  C14 UNL     1       6.117  -4.763  31.416  0.00  0.00    +0.009 A 
ATOM     15  C15 UNL     1       6.039  -4.959  35.735  0.00  0.00    +0.010 A 
ATOM     16  C16 UNL     1       6.015  -5.020  37.118  0.00  0.00    +0.010 A 
ATOM     17  C17 UNL     1       5.550  -6.157  37.801  0.00  0.00    -0.010 A 
ATOM     18  C18 UNL     1       5.094  -7.269  37.026  0.00  0.00    -0.010 A 
ATOM     19  C19 UNL     1       4.626  -8.413  37.718  0.00  0.00    +0.010 A 
ATOM     20  C20 UNL     1       4.604  -8.469  39.104  0.00  0.00    +0.009 A 
ATOM     21  C21 UNL     1       5.045  -7.394  39.868  0.00  0.00    -0.017 A 
ATOM     22  C22 UNL     1       5.526  -6.218  39.234  0.00  0.00    -0.010 A 
ATOM     23  C23 UNL     1       5.961  -5.155  40.069  0.00  0.00    +0.009 A 
ATOM     24  C24 UNL     1       5.917  -5.267  41.461  0.00  0.00    +0.001 A 
ATOM     25  C25 UNL     1       5.441  -6.429  42.059  0.00  0.00    +0.001 A 
ATOM     26  C26 UNL     1       5.007  -7.488  41.269  0.00  0.00    +0.008 A 
ENDROOT
TORSDOF 0
ENDMDL
MODEL 8
REMARK minimizedAffinity -6.63847017
REMARK minimizedRMSD -1
REMARK  Name = /home/tchapet/Post-Doc/ARTICLES-DOSSIERS-DES-ARTICLES-EN-REDACTION/NOUVELS-AXES-DE-RECHERCHE-A-REGARDER-URGEMMENT/ARTICLES-EN-REDACTIONS/ARTICLE_MVOTO/Paper2_JCIM/docking_rerun/ligands/9168.pdb
REMARK  0 active torsions:
REMARK  status: ('A' for Active; 'I' for Inactive)
REMARK                            x       y       z     vdW  Elec       q    Type
REMARK                         _______ _______ _______ _____ _____    ______ ____
ROOT
ATOM      1  C1  UNL     1      19.280 -12.547  39.225  0.00  0.00    +0.001 A 
ATOM      2  C2  UNL     1      18.171 -12.379  38.403  0.00  0.00    +0.001 A 
ATOM      3  C3  UNL     1      18.344 -12.000  37.075  0.00  0.00    +0.008 A 
ATOM      4  C4  UNL     1      19.632 -11.784  36.558  0.00  0.00    -0.017 A 
ATOM      5  C5  UNL     1      20.779 -11.949  37.378  0.00  0.00    -0.010 A 
ATOM      6  C6  UNL     1      20.569 -12.336  38.728  0.00  0.00    +0.009 A 
ATOM      7  C7  UNL     1      22.079 -11.719  36.816  0.00  0.00    -0.010 A 
ATOM      8  C8  UNL     1      23.249 -11.867  37.578  0.00  0.00    +0.010 A 
ATOM      9  C9  UNL     1      24.506 -11.646  37.039  0.00  0.00    +0.010 A 
ATOM     10  C10 UNL     1      24.684 -11.261  35.695  0.00  0.00    -0.010 A 
ATOM     11  C11 UNL     1      23.518 -11.102  34.887  0.00  0.00    -0.010 A 
ATOM     12  C12 UNL     1      22.211 -11.331  35.447  0.00  0.00    -0.010 A 
ATOM     13  C13 UNL     1      21.029 -11.183  34.681  0.00  0.00    +0.010 A 
ATOM     14  C14 UNL     1      19.774 -11.406  35.228  0.00  0.00    +0.009 A 
ATOM     15  C15 UNL     1      23.696 -10.718  33.544  0.00  0.00    +0.010 A 
ATOM     16  C16 UNL     1      24.952 -10.497  33.003  0.00  0.00    +0.010 A 
ATOM     17  C17 UNL     1      26.123 -10.644  33.767  0.00  0.00    -0.010 A 
ATOM     18  C18 UNL     1      25.991 -11.033  35.136  0.00  0.00    -0.010 A 
ATOM     19  C19 UNL     1      27.172 -11.180  35.902  0.00  0.00    +0.010 A 
ATOM     20  C20 UNL     1      28.428 -10.957  35.355  0.00  0.00    +0.009 A 
ATOM     21  C21 UNL     1      28.569 -10.580  34.024  0.00  0.00    -0.017 A 
ATOM     22  C22 UNL     1      27.423 -10.415  33.204  0.00  0.00    -0.010 A 
ATOM     23  C23 UNL     1      27.633 -10.027  31.854  0.00  0.00    +0.009 A 
ATOM     24  C24 UNL     1      28.921  -9.817  31.356  0.00  0.00    +0.001 A 
ATOM     25  C25 UNL     1      30.030  -9.984  32.180  0.00  0.00    +0.001 A 
ATOM     26  C26 UNL     1      29.858 -10.363  33.507  0.00  0.00    +0.008 A 
ENDROOT
TORSDOF 0
ENDMDL
MODEL 9
REMARK minimizedAffinity -6.61553717
REMARK minimizedRMSD -1
REMARK  Name = /home/tchapet/Post-Doc/ARTICLES-DOSSIERS-DES-ARTICLES-EN-REDACTION/NOUVELS-AXES-DE-RECHERCHE-A-REGARDER-URGEMMENT/ARTICLES-EN-REDACTIONS/ARTICLE_MVOTO/Paper2_JCIM/docking_rerun/ligands/9168.pdb
REMARK  0 active torsions:
REMARK  status: ('A' for Active; 'I' for Inactive)
REMARK                            x       y       z     vdW  Elec       q    Type
REMARK                         _______ _______ _______ _____ _____    ______ ____
ROOT
ATOM      1  C1  UNL     1       6.022  20.879  25.836  0.00  0.00    +0.001 A 
ATOM      2  C2  UNL     1       5.089  20.483  26.788  0.00  0.00    +0.001 A 
ATOM      3  C3  UNL     1       4.397  19.287  26.624  0.00  0.00    +0.008 A 
ATOM      4  C4  UNL     1       4.633  18.475  25.502  0.00  0.00    -0.017 A 
ATOM      5  C5  UNL     1       5.581  18.859  24.518  0.00  0.00    -0.010 A 
ATOM      6  C6  UNL     1       6.271  20.085  24.714  0.00  0.00    +0.009 A 
ATOM      7  C7  UNL     1       5.797  18.004  23.385  0.00  0.00    -0.010 A 
ATOM      8  C8  UNL     1       6.722  18.331  22.380  0.00  0.00    +0.010 A 
ATOM      9  C9  UNL     1       6.932  17.509  21.285  0.00  0.00    +0.010 A 
ATOM     10  C10 UNL     1       6.233  16.298  21.116  0.00  0.00    -0.010 A 
ATOM     11  C11 UNL     1       5.285  15.930  22.118  0.00  0.00    -0.010 A 
ATOM     12  C12 UNL     1       5.064  16.784  23.256  0.00  0.00    -0.010 A 
ATOM     13  C13 UNL     1       4.133  16.457  24.272  0.00  0.00    +0.010 A 
ATOM     14  C14 UNL     1       3.927  17.285  25.366  0.00  0.00    +0.009 A 
ATOM     15  C15 UNL     1       4.586  14.719  21.949  0.00  0.00    +0.010 A 
ATOM     16  C16 UNL     1       4.796  13.896  20.855  0.00  0.00    +0.010 A 
ATOM     17  C17 UNL     1       5.721  14.224  19.848  0.00  0.00    -0.010 A 
ATOM     18  C18 UNL     1       6.453  15.444  19.978  0.00  0.00    -0.010 A 
ATOM     19  C19 UNL     1       7.384  15.771  18.962  0.00  0.00    +0.010 A 
ATOM     20  C20 UNL     1       7.590  14.943  17.868  0.00  0.00    +0.009 A 
ATOM     21  C21 UNL     1       6.884  13.753  17.732  0.00  0.00    -0.017 A 
ATOM     22  C22 UNL     1       5.936  13.369  18.717  0.00  0.00    -0.010 A 
ATOM     23  C23 UNL     1       5.247  12.143  18.520  0.00  0.00    +0.009 A 
ATOM     24  C24 UNL     1       5.495  11.348  17.398  0.00  0.00    +0.001 A 
ATOM     25  C25 UNL     1       6.429  11.745  16.446  0.00  0.00    +0.001 A 
ATOM     26  C26 UNL     1       7.121  12.941  16.610  0.00  0.00    +0.008 A 
ENDROOT
TORSDOF 0
ENDMDL
