MODEL 1
REMARK minimizedAffinity -7.13036251
REMARK minimizedRMSD -1
REMARK  Name = /home/tchapet/Post-Doc/ARTICLES-DOSSIERS-DES-ARTICLES-EN-REDACTION/NOUVELS-AXES-DE-RECHERCHE-A-REGARDER-URGEMMENT/ARTICLES-EN-REDACTIONS/ARTICLE_MVOTO/Paper2_JCIM/docking_rerun/ligands/9168.pdb
REMARK  0 active torsions:
REMARK  status: ('A' for Active; 'I' for Inactive)
REMARK                            x       y       z     vdW  Elec       q    Type
REMARK                         _______ _______ _______ _____ _____    ______ ____
ROOT
ATOM      1  C1  UNL     1       5.774  -7.582  38.949  0.00  0.00    +0.001 A 
ATOM      2  C2  UNL     1       6.252  -6.375  39.446  0.00  0.00    +0.001 A 
ATOM      3  C3  UNL     1       6.518  -5.323  38.575  0.00  0.00    +0.008 A 
ATOM      4  C4  UNL     1       6.308  -5.472  37.193  0.00  0.00    -0.017 A 
ATOM      5  C5  UNL     1       5.820  -6.694  36.663  0.00  0.00    -0.010 A 
ATOM      6  C6  UNL     1       5.559  -7.748  37.579  0.00  0.00    +0.009 A 
ATOM      7  C7  UNL     1       5.617  -6.810  35.247  0.00  0.00    -0.010 A 
ATOM      8  C8  UNL     1       5.137  -7.995  34.665  0.00  0.00    +0.010 A 
ATOM      9  C9  UNL     1       4.940  -8.110  33.298  0.00  0.00    +0.010 A 
ATOM     10  C10 UNL     1       5.209  -7.047  32.414  0.00  0.00    -0.010 A 
ATOM     11  C11 UNL     1       5.698  -5.826  32.968  0.00  0.00    -0.010 A 
ATOM     12  C12 UNL     1       5.903  -5.705  34.388  0.00  0.00    -0.010 A 
ATOM     13  C13 UNL     1       6.387  -4.512  34.978  0.00  0.00    +0.010 A 
ATOM     14  C14 UNL     1       6.582  -4.403  36.348  0.00  0.00    +0.009 A 
ATOM     15  C15 UNL     1       5.966  -4.763  32.083  0.00  0.00    +0.010 A 
ATOM     16  C16 UNL     1       5.769  -4.877  30.717  0.00  0.00    +0.010 A 
ATOM     17  C17 UNL     1       5.289  -6.063  30.134  0.00  0.00    -0.010 A 
ATOM     18  C18 UNL     1       5.003  -7.168  30.994  0.00  0.00    -0.010 A 
ATOM     19  C19 UNL     1       4.520  -8.361  30.404  0.00  0.00    +0.010 A 
ATOM     20  C20 UNL     1       4.325  -8.470  29.034  0.00  0.00    +0.009 A 
ATOM     21  C21 UNL     1       4.599  -7.401  28.188  0.00  0.00    -0.017 A 
ATOM     22  C22 UNL     1       5.086  -6.178  28.719  0.00  0.00    -0.010 A 
ATOM     23  C23 UNL     1       5.348  -5.125  27.803  0.00  0.00    +0.009 A 
ATOM     24  C24 UNL     1       5.132  -5.290  26.433  0.00  0.00    +0.001 A 
ATOM     25  C25 UNL     1       4.654  -6.498  25.936  0.00  0.00    +0.001 A 
ATOM     26  C26 UNL     1       4.389  -7.550  26.807  0.00  0.00    +0.008 A 
ENDROOT
TORSDOF 0
ENDMDL
MODEL 2
REMARK minimizedAffinity -7.10064077
REMARK minimizedRMSD -1
REMARK  Name = /home/tchapet/Post-Doc/ARTICLES-DOSSIERS-DES-ARTICLES-EN-REDACTION/NOUVELS-AXES-DE-RECHERCHE-A-REGARDER-URGEMMENT/ARTICLES-EN-REDACTIONS/ARTICLE_MVOTO/Paper2_JCIM/docking_rerun/ligands/9168.pdb
REMARK  0 active torsions:
REMARK  status: ('A' for Active; 'I' for Inactive)
REMARK                            x       y       z     vdW  Elec       q    Type
REMARK                         _______ _______ _______ _____ _____    ______ ____
ROOT
ATOM      1  C1  UNL     1       5.051  -5.248  26.461  0.00  0.00    +0.001 A 
ATOM      2  C2  UNL     1       4.577  -6.453  25.954  0.00  0.00    +0.001 A 
ATOM      3  C3  UNL     1       4.321  -7.514  26.816  0.00  0.00    +0.008 A 
ATOM      4  C4  UNL     1       4.540  -7.379  28.198  0.00  0.00    -0.017 A 
ATOM      5  C5  UNL     1       5.024  -6.159  28.738  0.00  0.00    -0.010 A 
ATOM      6  C6  UNL     1       5.274  -5.095  27.832  0.00  0.00    +0.009 A 
ATOM      7  C7  UNL     1       5.235  -6.057  30.153  0.00  0.00    -0.010 A 
ATOM      8  C8  UNL     1       5.711  -4.875  30.745  0.00  0.00    +0.010 A 
ATOM      9  C9  UNL     1       5.917  -4.774  32.111  0.00  0.00    +0.010 A 
ATOM     10  C10 UNL     1       5.660  -5.847  32.986  0.00  0.00    -0.010 A 
ATOM     11  C11 UNL     1       5.173  -7.065  32.423  0.00  0.00    -0.010 A 
ATOM     12  C12 UNL     1       4.960  -7.173  31.003  0.00  0.00    -0.010 A 
ATOM     13  C13 UNL     1       4.479  -8.362  30.404  0.00  0.00    +0.010 A 
ATOM     14  C14 UNL     1       4.275  -8.457  29.034  0.00  0.00    +0.009 A 
ATOM     15  C15 UNL     1       4.916  -8.138  33.298  0.00  0.00    +0.010 A 
ATOM     16  C16 UNL     1       5.121  -8.037  34.665  0.00  0.00    +0.010 A 
ATOM     17  C17 UNL     1       5.598  -6.855  35.256  0.00  0.00    -0.010 A 
ATOM     18  C18 UNL     1       5.873  -5.739  34.406  0.00  0.00    -0.010 A 
ATOM     19  C19 UNL     1       6.354  -4.550  35.006  0.00  0.00    +0.010 A 
ATOM     20  C20 UNL     1       6.558  -4.455  36.375  0.00  0.00    +0.009 A 
ATOM     21  C21 UNL     1       6.293  -5.533  37.212  0.00  0.00    -0.017 A 
ATOM     22  C22 UNL     1       5.808  -6.754  36.672  0.00  0.00    -0.010 A 
ATOM     23  C23 UNL     1       5.559  -7.818  37.578  0.00  0.00    +0.009 A 
ATOM     24  C24 UNL     1       5.781  -7.665  38.949  0.00  0.00    +0.001 A 
ATOM     25  C25 UNL     1       6.256  -6.460  39.455  0.00  0.00    +0.001 A 
ATOM     26  C26 UNL     1       6.511  -5.398  38.593  0.00  0.00    +0.008 A 
ENDROOT
TORSDOF 0
ENDMDL
MODEL 3
REMARK minimizedAffinity -7.02211237
REMARK minimizedRMSD -1
REMARK  Name = /home/tchapet/Post-Doc/ARTICLES-DOSSIERS-DES-ARTICLES-EN-REDACTION/NOUVELS-AXES-DE-RECHERCHE-A-REGARDER-URGEMMENT/ARTICLES-EN-REDACTIONS/ARTICLE_MVOTO/Paper2_JCIM/docking_rerun/ligands/9168.pdb
REMARK  0 active torsions:
REMARK  status: ('A' for Active; 'I' for Inactive)
REMARK                            x       y       z     vdW  Elec       q    Type
REMARK                         _______ _______ _______ _____ _____    ______ ____
ROOT
ATOM      1  C1  UNL     1      14.953 -13.052  37.636  0.00  0.00    +0.001 A 
ATOM      2  C2  UNL     1      15.006 -13.284  39.006  0.00  0.00    +0.001 A 
ATOM      3  C3  UNL     1      16.223 -13.214  39.675  0.00  0.00    +0.008 A 
ATOM      4  C4  UNL     1      17.404 -12.910  38.975  0.00  0.00    -0.017 A 
ATOM      5  C5  UNL     1      17.375 -12.670  37.577  0.00  0.00    -0.010 A 
ATOM      6  C6  UNL     1      16.116 -12.749  36.924  0.00  0.00    +0.009 A 
ATOM      7  C7  UNL     1      18.600 -12.362  36.896  0.00  0.00    -0.010 A 
ATOM      8  C8  UNL     1      18.633 -12.114  35.514  0.00  0.00    +0.010 A 
ATOM      9  C9  UNL     1      19.814 -11.818  34.853  0.00  0.00    +0.010 A 
ATOM     10  C10 UNL     1      21.049 -11.746  35.527  0.00  0.00    -0.010 A 
ATOM     11  C11 UNL     1      21.056 -11.991  36.933  0.00  0.00    -0.010 A 
ATOM     12  C12 UNL     1      19.830 -12.300  37.622  0.00  0.00    -0.010 A 
ATOM     13  C13 UNL     1      19.792 -12.550  39.015  0.00  0.00    +0.010 A 
ATOM     14  C14 UNL     1      18.606 -12.847  39.671  0.00  0.00    +0.009 A 
ATOM     15  C15 UNL     1      22.291 -11.919  37.608  0.00  0.00    +0.010 A 
ATOM     16  C16 UNL     1      23.472 -11.622  36.947  0.00  0.00    +0.010 A 
ATOM     17  C17 UNL     1      23.505 -11.375  35.564  0.00  0.00    -0.010 A 
ATOM     18  C18 UNL     1      22.275 -11.437  34.839  0.00  0.00    -0.010 A 
ATOM     19  C19 UNL     1      22.312 -11.187  33.445  0.00  0.00    +0.010 A 
ATOM     20  C20 UNL     1      23.499 -10.890  32.790  0.00  0.00    +0.009 A 
ATOM     21  C21 UNL     1      24.701 -10.826  33.485  0.00  0.00    -0.017 A 
ATOM     22  C22 UNL     1      24.730 -11.067  34.884  0.00  0.00    -0.010 A 
ATOM     23  C23 UNL     1      25.988 -10.988  35.536  0.00  0.00    +0.009 A 
ATOM     24  C24 UNL     1      27.152 -10.684  34.825  0.00  0.00    +0.001 A 
ATOM     25  C25 UNL     1      27.099 -10.452  33.454  0.00  0.00    +0.001 A 
ATOM     26  C26 UNL     1      25.881 -10.523  32.785  0.00  0.00    +0.008 A 
ENDROOT
TORSDOF 0
ENDMDL
MODEL 4
REMARK minimizedAffinity -7.01740074
REMARK minimizedRMSD -1
REMARK  Name = /home/tchapet/Post-Doc/ARTICLES-DOSSIERS-DES-ARTICLES-EN-REDACTION/NOUVELS-AXES-DE-RECHERCHE-A-REGARDER-URGEMMENT/ARTICLES-EN-REDACTIONS/ARTICLE_MVOTO/Paper2_JCIM/docking_rerun/ligands/9168.pdb
REMARK  0 active torsions:
REMARK  status: ('A' for Active; 'I' for Inactive)
REMARK                            x       y       z     vdW  Elec       q    Type
REMARK                         _______ _______ _______ _____ _____    ______ ____
ROOT
ATOM      1  C1  UNL     1      27.247 -10.760  34.721  0.00  0.00    +0.001 A 
ATOM      2  C2  UNL     1      27.180 -10.521  33.353  0.00  0.00    +0.001 A 
ATOM      3  C3  UNL     1      25.951 -10.560  32.702  0.00  0.00    +0.008 A 
ATOM      4  C4  UNL     1      24.774 -10.840  33.417  0.00  0.00    -0.017 A 
ATOM      5  C5  UNL     1      24.818 -11.087  34.814  0.00  0.00    -0.010 A 
ATOM      6  C6  UNL     1      26.088 -11.040  35.449  0.00  0.00    +0.009 A 
ATOM      7  C7  UNL     1      23.596 -11.370  35.512  0.00  0.00    -0.010 A 
ATOM      8  C8  UNL     1      23.577 -11.622  36.894  0.00  0.00    +0.010 A 
ATOM      9  C9  UNL     1      22.400 -11.896  37.570  0.00  0.00    +0.010 A 
ATOM     10  C10 UNL     1      21.154 -11.936  36.914  0.00  0.00    -0.010 A 
ATOM     11  C11 UNL     1      21.132 -11.684  35.509  0.00  0.00    -0.010 A 
ATOM     12  C12 UNL     1      22.355 -11.400  34.804  0.00  0.00    -0.010 A 
ATOM     13  C13 UNL     1      22.378 -11.145  33.411  0.00  0.00    +0.010 A 
ATOM     14  C14 UNL     1      23.561 -10.872  32.740  0.00  0.00    +0.009 A 
ATOM     15  C15 UNL     1      19.886 -11.724  34.853  0.00  0.00    +0.010 A 
ATOM     16  C16 UNL     1      18.708 -11.998  35.529  0.00  0.00    +0.010 A 
ATOM     17  C17 UNL     1      18.690 -12.251  36.911  0.00  0.00    -0.010 A 
ATOM     18  C18 UNL     1      19.931 -12.220  37.619  0.00  0.00    -0.010 A 
ATOM     19  C19 UNL     1      19.908 -12.475  39.012  0.00  0.00    +0.010 A 
ATOM     20  C20 UNL     1      18.725 -12.749  39.683  0.00  0.00    +0.009 A 
ATOM     21  C21 UNL     1      17.512 -12.780  39.006  0.00  0.00    -0.017 A 
ATOM     22  C22 UNL     1      17.468 -12.532  37.609  0.00  0.00    -0.010 A 
ATOM     23  C23 UNL     1      16.199 -12.580  36.974  0.00  0.00    +0.009 A 
ATOM     24  C24 UNL     1      15.039 -12.860  37.701  0.00  0.00    +0.001 A 
ATOM     25  C25 UNL     1      15.106 -13.099  39.070  0.00  0.00    +0.001 A 
ATOM     26  C26 UNL     1      16.335 -13.060  39.721  0.00  0.00    +0.008 A 
ENDROOT
TORSDOF 0
ENDMDL
MODEL 5
REMARK minimizedAffinity -6.80322409
REMARK minimizedRMSD -1
REMARK  Name = /home/tchapet/Post-Doc/ARTICLES-DOSSIERS-DES-ARTICLES-EN-REDACTION/NOUVELS-AXES-DE-RECHERCHE-A-REGARDER-URGEMMENT/ARTICLES-EN-REDACTIONS/ARTICLE_MVOTO/Paper2_JCIM/docking_rerun/ligands/9168.pdb
REMARK  0 active torsions:
REMARK  status: ('A' for Active; 'I' for Inactive)
REMARK                            x       y       z     vdW  Elec       q    Type
REMARK                         _______ _______ _______ _____ _____    ______ ____
ROOT
ATOM      1  C1  UNL     1       7.265  13.220  16.531  0.00  0.00    +0.001 A 
ATOM      2  C2  UNL     1       6.523  12.046  16.606  0.00  0.00    +0.001 A 
ATOM      3  C3  UNL     1       5.695  11.818  17.700  0.00  0.00    +0.008 A 
ATOM      4  C4  UNL     1       5.603  12.767  18.733  0.00  0.00    -0.017 A 
ATOM      5  C5  UNL     1       6.349  13.972  18.678  0.00  0.00    -0.010 A 
ATOM      6  C6  UNL     1       7.185  14.175  17.548  0.00  0.00    +0.009 A 
ATOM      7  C7  UNL     1       6.229  14.917  19.751  0.00  0.00    -0.010 A 
ATOM      8  C8  UNL     1       6.943  16.127  19.751  0.00  0.00    +0.010 A 
ATOM      9  C9  UNL     1       6.830  17.042  20.785  0.00  0.00    +0.010 A 
ATOM     10  C10 UNL     1       5.993  16.814  21.895  0.00  0.00    -0.010 A 
ATOM     11  C11 UNL     1       5.250  15.596  21.930  0.00  0.00    -0.010 A 
ATOM     12  C12 UNL     1       5.367  14.644  20.857  0.00  0.00    -0.010 A 
ATOM     13  C13 UNL     1       4.648  13.423  20.853  0.00  0.00    +0.010 A 
ATOM     14  C14 UNL     1       4.766  12.511  19.814  0.00  0.00    +0.009 A 
ATOM     15  C15 UNL     1       4.412  15.368  23.040  0.00  0.00    +0.010 A 
ATOM     16  C16 UNL     1       4.298  16.283  24.075  0.00  0.00    +0.010 A 
ATOM     17  C17 UNL     1       5.013  17.493  24.075  0.00  0.00    -0.010 A 
ATOM     18  C18 UNL     1       5.876  17.767  22.968  0.00  0.00    -0.010 A 
ATOM     19  C19 UNL     1       6.594  18.987  22.972  0.00  0.00    +0.010 A 
ATOM     20  C20 UNL     1       6.476  19.899  24.011  0.00  0.00    +0.009 A 
ATOM     21  C21 UNL     1       5.640  19.644  25.092  0.00  0.00    -0.017 A 
ATOM     22  C22 UNL     1       4.892  18.438  25.147  0.00  0.00    -0.010 A 
ATOM     23  C23 UNL     1       4.058  18.236  26.278  0.00  0.00    +0.009 A 
ATOM     24  C24 UNL     1       3.977  19.190  27.295  0.00  0.00    +0.001 A 
ATOM     25  C25 UNL     1       4.719  20.364  27.220  0.00  0.00    +0.001 A 
ATOM     26  C26 UNL     1       5.547  20.592  26.125  0.00  0.00    +0.008 A 
ENDROOT
TORSDOF 0
ENDMDL
MODEL 6
REMARK minimizedAffinity -6.7830863
REMARK minimizedRMSD -1
REMARK  Name = /home/tchapet/Post-Doc/ARTICLES-DOSSIERS-DES-ARTICLES-EN-REDACTION/NOUVELS-AXES-DE-RECHERCHE-A-REGARDER-URGEMMENT/ARTICLES-EN-REDACTIONS/ARTICLE_MVOTO/Paper2_JCIM/docking_rerun/ligands/9168.pdb
REMARK  0 active torsions:
REMARK  status: ('A' for Active; 'I' for Inactive)
REMARK                            x       y       z     vdW  Elec       q    Type
REMARK                         _______ _______ _______ _____ _____    ______ ____
ROOT
ATOM      1  C1  UNL     1       3.793  19.049  27.591  0.00  0.00    +0.001 A 
ATOM      2  C2  UNL     1       4.513  20.239  27.567  0.00  0.00    +0.001 A 
ATOM      3  C3  UNL     1       5.355  20.518  26.496  0.00  0.00    +0.008 A 
ATOM      4  C4  UNL     1       5.485  19.606  25.435  0.00  0.00    -0.017 A 
ATOM      5  C5  UNL     1       4.760  18.386  25.437  0.00  0.00    -0.010 A 
ATOM      6  C6  UNL     1       3.909  18.131  26.545  0.00  0.00    +0.009 A 
ATOM      7  C7  UNL     1       4.917  17.479  24.336  0.00  0.00    -0.010 A 
ATOM      8  C8  UNL     1       4.226  16.257  24.283  0.00  0.00    +0.010 A 
ATOM      9  C9  UNL     1       4.376  15.378  23.222  0.00  0.00    +0.010 A 
ATOM     10  C10 UNL     1       5.228  15.658  22.136  0.00  0.00    -0.010 A 
ATOM     11  C11 UNL     1       5.947  16.891  22.154  0.00  0.00    -0.010 A 
ATOM     12  C12 UNL     1       5.793  17.805  23.255  0.00  0.00    -0.010 A 
ATOM     13  C13 UNL     1       6.488  19.037  23.312  0.00  0.00    +0.010 A 
ATOM     14  C14 UNL     1       6.334  19.913  24.378  0.00  0.00    +0.009 A 
ATOM     15  C15 UNL     1       6.800  17.171  21.067  0.00  0.00    +0.010 A 
ATOM     16  C16 UNL     1       6.950  16.293  20.006  0.00  0.00    +0.010 A 
ATOM     17  C17 UNL     1       6.258  15.070  19.953  0.00  0.00    -0.010 A 
ATOM     18  C18 UNL     1       5.382  14.744  21.035  0.00  0.00    -0.010 A 
ATOM     19  C19 UNL     1       4.687  13.512  20.977  0.00  0.00    +0.010 A 
ATOM     20  C20 UNL     1       4.841  12.636  19.912  0.00  0.00    +0.009 A 
ATOM     21  C21 UNL     1       5.690  12.943  18.855  0.00  0.00    -0.017 A 
ATOM     22  C22 UNL     1       6.415  14.164  18.853  0.00  0.00    -0.010 A 
ATOM     23  C23 UNL     1       7.266  14.418  17.745  0.00  0.00    +0.009 A 
ATOM     24  C24 UNL     1       7.383  13.500  16.699  0.00  0.00    +0.001 A 
ATOM     25  C25 UNL     1       6.662  12.310  16.722  0.00  0.00    +0.001 A 
ATOM     26  C26 UNL     1       5.820  12.031  17.794  0.00  0.00    +0.008 A 
ENDROOT
TORSDOF 0
ENDMDL
MODEL 7
REMARK minimizedAffinity -6.64548445
REMARK minimizedRMSD -1
REMARK  Name = /home/tchapet/Post-Doc/ARTICLES-DOSSIERS-DES-ARTICLES-EN-REDACTION/NOUVELS-AXES-DE-RECHERCHE-A-REGARDER-URGEMMENT/ARTICLES-EN-REDACTIONS/ARTICLE_MVOTO/Paper2_JCIM/docking_rerun/ligands/9168.pdb
REMARK  0 active torsions:
REMARK  status: ('A' for Active; 'I' for Inactive)
REMARK                            x       y       z     vdW  Elec       q    Type
REMARK                         _______ _______ _______ _____ _____    ______ ____
ROOT
ATOM      1  C1  UNL     1      28.920  -9.654  31.490  0.00  0.00    +0.001 A 
ATOM      2  C2  UNL     1      30.023  -9.802  32.325  0.00  0.00    +0.001 A 
ATOM      3  C3  UNL     1      29.843 -10.200  33.646  0.00  0.00    +0.008 A 
ATOM      4  C4  UNL     1      28.554 -10.452  34.145  0.00  0.00    -0.017 A 
ATOM      5  C5  UNL     1      27.414 -10.307  33.312  0.00  0.00    -0.010 A 
ATOM      6  C6  UNL     1      27.631  -9.901  31.968  0.00  0.00    +0.009 A 
ATOM      7  C7  UNL     1      26.113 -10.574  33.855  0.00  0.00    -0.010 A 
ATOM      8  C8  UNL     1      24.949 -10.448  33.079  0.00  0.00    +0.010 A 
ATOM      9  C9  UNL     1      23.692 -10.704  33.601  0.00  0.00    +0.010 A 
ATOM     10  C10 UNL     1      23.507 -11.107  34.938  0.00  0.00    -0.010 A 
ATOM     11  C11 UNL     1      24.666 -11.247  35.758  0.00  0.00    -0.010 A 
ATOM     12  C12 UNL     1      25.974 -10.981  35.218  0.00  0.00    -0.010 A 
ATOM     13  C13 UNL     1      27.149 -11.107  35.998  0.00  0.00    +0.010 A 
ATOM     14  C14 UNL     1      28.405 -10.849  35.469  0.00  0.00    +0.009 A 
ATOM     15  C15 UNL     1      24.481 -11.649  37.096  0.00  0.00    +0.010 A 
ATOM     16  C16 UNL     1      23.223 -11.906  37.618  0.00  0.00    +0.010 A 
ATOM     17  C17 UNL     1      22.059 -11.780  36.841  0.00  0.00    -0.010 A 
ATOM     18  C18 UNL     1      22.199 -11.373  35.478  0.00  0.00    -0.010 A 
ATOM     19  C19 UNL     1      21.023 -11.247  34.699  0.00  0.00    +0.010 A 
ATOM     20  C20 UNL     1      19.767 -11.505  35.228  0.00  0.00    +0.009 A 
ATOM     21  C21 UNL     1      19.618 -11.902  36.552  0.00  0.00    -0.017 A 
ATOM     22  C22 UNL     1      20.758 -12.047  37.385  0.00  0.00    -0.010 A 
ATOM     23  C23 UNL     1      20.541 -12.453  38.728  0.00  0.00    +0.009 A 
ATOM     24  C24 UNL     1      19.252 -12.701  39.207  0.00  0.00    +0.001 A 
ATOM     25  C25 UNL     1      18.150 -12.552  38.372  0.00  0.00    +0.001 A 
ATOM     26  C26 UNL     1      18.329 -12.154  37.051  0.00  0.00    +0.008 A 
ENDROOT
TORSDOF 0
ENDMDL
MODEL 8
REMARK minimizedAffinity -6.6449275
REMARK minimizedRMSD -1
REMARK  Name = /home/tchapet/Post-Doc/ARTICLES-DOSSIERS-DES-ARTICLES-EN-REDACTION/NOUVELS-AXES-DE-RECHERCHE-A-REGARDER-URGEMMENT/ARTICLES-EN-REDACTIONS/ARTICLE_MVOTO/Paper2_JCIM/docking_rerun/ligands/9168.pdb
REMARK  0 active torsions:
REMARK  status: ('A' for Active; 'I' for Inactive)
REMARK                            x       y       z     vdW  Elec       q    Type
REMARK                         _______ _______ _______ _____ _____    ______ ____
ROOT
ATOM      1  C1  UNL     1      19.308 -12.623  39.228  0.00  0.00    +0.001 A 
ATOM      2  C2  UNL     1      18.209 -12.455  38.393  0.00  0.00    +0.001 A 
ATOM      3  C3  UNL     1      18.396 -12.059  37.073  0.00  0.00    +0.008 A 
ATOM      4  C4  UNL     1      19.690 -11.825  36.576  0.00  0.00    -0.017 A 
ATOM      5  C5  UNL     1      20.826 -11.990  37.409  0.00  0.00    -0.010 A 
ATOM      6  C6  UNL     1      20.601 -12.395  38.751  0.00  0.00    +0.009 A 
ATOM      7  C7  UNL     1      22.131 -11.742  36.867  0.00  0.00    -0.010 A 
ATOM      8  C8  UNL     1      23.293 -11.889  37.644  0.00  0.00    +0.010 A 
ATOM      9  C9  UNL     1      24.555 -11.650  37.124  0.00  0.00    +0.010 A 
ATOM     10  C10 UNL     1      24.747 -11.248  35.787  0.00  0.00    -0.010 A 
ATOM     11  C11 UNL     1      23.591 -11.089  34.966  0.00  0.00    -0.010 A 
ATOM     12  C12 UNL     1      22.279 -11.336  35.505  0.00  0.00    -0.010 A 
ATOM     13  C13 UNL     1      21.106 -11.189  34.725  0.00  0.00    +0.010 A 
ATOM     14  C14 UNL     1      19.845 -11.430  35.252  0.00  0.00    +0.009 A 
ATOM     15  C15 UNL     1      23.784 -10.687  33.629  0.00  0.00    +0.010 A 
ATOM     16  C16 UNL     1      25.045 -10.449  33.109  0.00  0.00    +0.010 A 
ATOM     17  C17 UNL     1      26.207 -10.595  33.886  0.00  0.00    -0.010 A 
ATOM     18  C18 UNL     1      26.059 -11.002  35.249  0.00  0.00    -0.010 A 
ATOM     19  C19 UNL     1      27.232 -11.148  36.029  0.00  0.00    +0.010 A 
ATOM     20  C20 UNL     1      28.493 -10.908  35.502  0.00  0.00    +0.009 A 
ATOM     21  C21 UNL     1      28.649 -10.513  34.178  0.00  0.00    -0.017 A 
ATOM     22  C22 UNL     1      27.512 -10.348  33.344  0.00  0.00    -0.010 A 
ATOM     23  C23 UNL     1      27.737  -9.942  32.002  0.00  0.00    +0.009 A 
ATOM     24  C24 UNL     1      29.029  -9.715  31.524  0.00  0.00    +0.001 A 
ATOM     25  C25 UNL     1      30.129  -9.882  32.360  0.00  0.00    +0.001 A 
ATOM     26  C26 UNL     1      29.942 -10.279  33.681  0.00  0.00    +0.008 A 
ENDROOT
TORSDOF 0
ENDMDL
MODEL 9
REMARK minimizedAffinity -6.62318802
REMARK minimizedRMSD -1
REMARK  Name = /home/tchapet/Post-Doc/ARTICLES-DOSSIERS-DES-ARTICLES-EN-REDACTION/NOUVELS-AXES-DE-RECHERCHE-A-REGARDER-URGEMMENT/ARTICLES-EN-REDACTIONS/ARTICLE_MVOTO/Paper2_JCIM/docking_rerun/ligands/9168.pdb
REMARK  0 active torsions:
REMARK  status: ('A' for Active; 'I' for Inactive)
REMARK                            x       y       z     vdW  Elec       q    Type
REMARK                         _______ _______ _______ _____ _____    ______ ____
ROOT
ATOM      1  C1  UNL     1       4.777  -8.121  28.942  0.00  0.00    +0.001 A 
ATOM      2  C2  UNL     1       5.164  -6.936  28.325  0.00  0.00    +0.001 A 
ATOM      3  C3  UNL     1       5.548  -5.845  29.098  0.00  0.00    +0.008 A 
ATOM      4  C4  UNL     1       5.547  -5.930  30.501  0.00  0.00    -0.017 A 
ATOM      5  C5  UNL     1       5.156  -7.128  31.153  0.00  0.00    -0.010 A 
ATOM      6  C6  UNL     1       4.770  -8.224  30.335  0.00  0.00    +0.009 A 
ATOM      7  C7  UNL     1       5.168  -7.179  32.586  0.00  0.00    -0.010 A 
ATOM      8  C8  UNL     1       4.792  -8.337  33.287  0.00  0.00    +0.010 A 
ATOM      9  C9  UNL     1       4.801  -8.390  34.671  0.00  0.00    +0.010 A 
ATOM     10  C10 UNL     1       5.189  -7.286  35.457  0.00  0.00    -0.010 A 
ATOM     11  C11 UNL     1       5.579  -6.091  34.782  0.00  0.00    -0.010 A 
ATOM     12  C12 UNL     1       5.569  -6.035  33.343  0.00  0.00    -0.010 A 
ATOM     13  C13 UNL     1       5.948  -4.869  32.633  0.00  0.00    +0.010 A 
ATOM     14  C14 UNL     1       5.936  -4.824  31.247  0.00  0.00    +0.009 A 
ATOM     15  C15 UNL     1       5.967  -4.988  35.567  0.00  0.00    +0.010 A 
ATOM     16  C16 UNL     1       5.977  -5.040  36.952  0.00  0.00    +0.010 A 
ATOM     17  C17 UNL     1       5.600  -6.198  37.652  0.00  0.00    -0.010 A 
ATOM     18  C18 UNL     1       5.199  -7.343  36.896  0.00  0.00    -0.010 A 
ATOM     19  C19 UNL     1       4.820  -8.508  37.605  0.00  0.00    +0.010 A 
ATOM     20  C20 UNL     1       4.832  -8.554  38.992  0.00  0.00    +0.009 A 
ATOM     21  C21 UNL     1       5.221  -7.447  39.738  0.00  0.00    -0.017 A 
ATOM     22  C22 UNL     1       5.613  -6.249  39.086  0.00  0.00    -0.010 A 
ATOM     23  C23 UNL     1       5.998  -5.154  39.903  0.00  0.00    +0.009 A 
ATOM     24  C24 UNL     1       5.992  -5.256  41.296  0.00  0.00    +0.001 A 
ATOM     25  C25 UNL     1       5.604  -6.441  41.914  0.00  0.00    +0.001 A 
ATOM     26  C26 UNL     1       5.220  -7.532  41.141  0.00  0.00    +0.008 A 
ENDROOT
TORSDOF 0
ENDMDL
