MODEL 1
REMARK minimizedAffinity -7.8484664
REMARK minimizedRMSD -1
REMARK  Name = /home/tchapet/Post-Doc/ARTICLES-DOSSIERS-DES-ARTICLES-EN-REDACTION/NOUVELS-AXES-DE-RECHERCHE-A-REGARDER-URGEMMENT/ARTICLES-EN-REDACTIONS/ARTICLE_MVOTO/Paper2_JCIM/docking_rerun/ligands/9168.pdb
REMARK  0 active torsions:
REMARK  status: ('A' for Active; 'I' for Inactive)
REMARK                            x       y       z     vdW  Elec       q    Type
REMARK                         _______ _______ _______ _____ _____    ______ ____
ROOT
ATOM      1  C1  UNL     1       6.636  -1.072   3.391  0.00  0.00    +0.001 A 
ATOM      2  C2  UNL     1       6.271  -0.612   2.131  0.00  0.00    +0.001 A 
ATOM      3  C3  UNL     1       5.191  -1.188   1.469  0.00  0.00    +0.008 A 
ATOM      4  C4  UNL     1       4.465  -2.233   2.064  0.00  0.00    -0.017 A 
ATOM      5  C5  UNL     1       4.819  -2.719   3.350  0.00  0.00    -0.010 A 
ATOM      6  C6  UNL     1       5.926  -2.110   3.999  0.00  0.00    +0.009 A 
ATOM      7  C7  UNL     1       4.055  -3.788   3.927  0.00  0.00    -0.010 A 
ATOM      8  C8  UNL     1       4.358  -4.310   5.196  0.00  0.00    +0.010 A 
ATOM      9  C9  UNL     1       3.623  -5.342   5.756  0.00  0.00    +0.010 A 
ATOM     10  C10 UNL     1       2.529  -5.927   5.087  0.00  0.00    -0.010 A 
ATOM     11  C11 UNL     1       2.190  -5.423   3.796  0.00  0.00    -0.010 A 
ATOM     12  C12 UNL     1       2.953  -4.351   3.212  0.00  0.00    -0.010 A 
ATOM     13  C13 UNL     1       2.650  -3.822   1.934  0.00  0.00    +0.010 A 
ATOM     14  C14 UNL     1       3.391  -2.788   1.379  0.00  0.00    +0.009 A 
ATOM     15  C15 UNL     1       1.096  -6.008   3.128  0.00  0.00    +0.010 A 
ATOM     16  C16 UNL     1       0.360  -7.040   3.688  0.00  0.00    +0.010 A 
ATOM     17  C17 UNL     1       0.664  -7.562   4.957  0.00  0.00    -0.010 A 
ATOM     18  C18 UNL     1       1.766  -6.999   5.672  0.00  0.00    -0.010 A 
ATOM     19  C19 UNL     1       2.068  -7.528   6.950  0.00  0.00    +0.010 A 
ATOM     20  C20 UNL     1       1.328  -8.562   7.505  0.00  0.00    +0.009 A 
ATOM     21  C21 UNL     1       0.253  -9.117   6.819  0.00  0.00    -0.017 A 
ATOM     22  C22 UNL     1      -0.101  -8.630   5.534  0.00  0.00    -0.010 A 
ATOM     23  C23 UNL     1      -1.207  -9.240   4.885  0.00  0.00    +0.009 A 
ATOM     24  C24 UNL     1      -1.918 -10.277   5.492  0.00  0.00    +0.001 A 
ATOM     25  C25 UNL     1      -1.552 -10.738   6.753  0.00  0.00    +0.001 A 
ATOM     26  C26 UNL     1      -0.472 -10.162   7.415  0.00  0.00    +0.008 A 
ENDROOT
TORSDOF 0
ENDMDL
MODEL 2
REMARK minimizedAffinity -7.83173275
REMARK minimizedRMSD -1
REMARK  Name = /home/tchapet/Post-Doc/ARTICLES-DOSSIERS-DES-ARTICLES-EN-REDACTION/NOUVELS-AXES-DE-RECHERCHE-A-REGARDER-URGEMMENT/ARTICLES-EN-REDACTIONS/ARTICLE_MVOTO/Paper2_JCIM/docking_rerun/ligands/9168.pdb
REMARK  0 active torsions:
REMARK  status: ('A' for Active; 'I' for Inactive)
REMARK                            x       y       z     vdW  Elec       q    Type
REMARK                         _______ _______ _______ _____ _____    ______ ____
ROOT
ATOM      1  C1  UNL     1      -1.957 -10.209   5.596  0.00  0.00    +0.001 A 
ATOM      2  C2  UNL     1      -1.581 -10.703   6.840  0.00  0.00    +0.001 A 
ATOM      3  C3  UNL     1      -0.477 -10.165   7.495  0.00  0.00    +0.008 A 
ATOM      4  C4  UNL     1       0.263  -9.126   6.907  0.00  0.00    -0.017 A 
ATOM      5  C5  UNL     1      -0.101  -8.605   5.638  0.00  0.00    -0.010 A 
ATOM      6  C6  UNL     1      -1.233  -9.175   4.996  0.00  0.00    +0.009 A 
ATOM      7  C7  UNL     1       0.678  -7.543   5.069  0.00  0.00    -0.010 A 
ATOM      8  C8  UNL     1       0.365  -6.988   3.816  0.00  0.00    +0.010 A 
ATOM      9  C9  UNL     1       1.115  -5.963   3.263  0.00  0.00    +0.010 A 
ATOM     10  C10 UNL     1       2.233  -5.417   3.924  0.00  0.00    -0.010 A 
ATOM     11  C11 UNL     1       2.582  -5.954   5.199  0.00  0.00    -0.010 A 
ATOM     12  C12 UNL     1       1.805  -7.020   5.775  0.00  0.00    -0.010 A 
ATOM     13  C13 UNL     1       2.117  -7.582   7.037  0.00  0.00    +0.010 A 
ATOM     14  C14 UNL     1       1.361  -8.608   7.585  0.00  0.00    +0.009 A 
ATOM     15  C15 UNL     1       3.701  -5.408   5.859  0.00  0.00    +0.010 A 
ATOM     16  C16 UNL     1       4.451  -4.383   5.307  0.00  0.00    +0.010 A 
ATOM     17  C17 UNL     1       4.138  -3.828   4.054  0.00  0.00    -0.010 A 
ATOM     18  C18 UNL     1       3.011  -4.351   3.348  0.00  0.00    -0.010 A 
ATOM     19  C19 UNL     1       2.699  -3.790   2.086  0.00  0.00    +0.010 A 
ATOM     20  C20 UNL     1       3.455  -2.763   1.538  0.00  0.00    +0.009 A 
ATOM     21  C21 UNL     1       4.553  -2.246   2.216  0.00  0.00    -0.017 A 
ATOM     22  C22 UNL     1       4.917  -2.766   3.486  0.00  0.00    -0.010 A 
ATOM     23  C23 UNL     1       6.049  -2.196   4.127  0.00  0.00    +0.009 A 
ATOM     24  C24 UNL     1       6.773  -1.162   3.528  0.00  0.00    +0.001 A 
ATOM     25  C25 UNL     1       6.397  -0.669   2.283  0.00  0.00    +0.001 A 
ATOM     26  C26 UNL     1       5.293  -1.206   1.628  0.00  0.00    +0.008 A 
ENDROOT
TORSDOF 0
ENDMDL
MODEL 3
REMARK minimizedAffinity -7.77421045
REMARK minimizedRMSD -1
REMARK  Name = /home/tchapet/Post-Doc/ARTICLES-DOSSIERS-DES-ARTICLES-EN-REDACTION/NOUVELS-AXES-DE-RECHERCHE-A-REGARDER-URGEMMENT/ARTICLES-EN-REDACTIONS/ARTICLE_MVOTO/Paper2_JCIM/docking_rerun/ligands/9168.pdb
REMARK  0 active torsions:
REMARK  status: ('A' for Active; 'I' for Inactive)
REMARK                            x       y       z     vdW  Elec       q    Type
REMARK                         _______ _______ _______ _____ _____    ______ ____
ROOT
ATOM      1  C1  UNL     1      13.817   6.488   6.277  0.00  0.00    +0.001 A 
ATOM      2  C2  UNL     1      13.350   5.268   5.799  0.00  0.00    +0.001 A 
ATOM      3  C3  UNL     1      13.570   4.107   6.533  0.00  0.00    +0.008 A 
ATOM      4  C4  UNL     1      14.262   4.156   7.755  0.00  0.00    -0.017 A 
ATOM      5  C5  UNL     1      14.747   5.389   8.262  0.00  0.00    -0.010 A 
ATOM      6  C6  UNL     1      14.507   6.557   7.490  0.00  0.00    +0.009 A 
ATOM      7  C7  UNL     1      15.449   5.402   9.513  0.00  0.00    -0.010 A 
ATOM      8  C8  UNL     1      15.952   6.592  10.066  0.00  0.00    +0.010 A 
ATOM      9  C9  UNL     1      16.631   6.607  11.273  0.00  0.00    +0.010 A 
ATOM     10  C10 UNL     1      16.855   5.433  12.018  0.00  0.00    -0.010 A 
ATOM     11  C11 UNL     1      16.358   4.203  11.491  0.00  0.00    -0.010 A 
ATOM     12  C12 UNL     1      15.653   4.185  10.235  0.00  0.00    -0.010 A 
ATOM     13  C13 UNL     1      15.145   2.988   9.676  0.00  0.00    +0.010 A 
ATOM     14  C14 UNL     1      14.466   2.979   8.466  0.00  0.00    +0.009 A 
ATOM     15  C15 UNL     1      16.583   3.029  12.236  0.00  0.00    +0.010 A 
ATOM     16  C16 UNL     1      17.261   3.043  13.444  0.00  0.00    +0.010 A 
ATOM     17  C17 UNL     1      17.764   4.234  13.995  0.00  0.00    -0.010 A 
ATOM     18  C18 UNL     1      17.560   5.451  13.274  0.00  0.00    -0.010 A 
ATOM     19  C19 UNL     1      18.069   6.648  13.833  0.00  0.00    +0.010 A 
ATOM     20  C20 UNL     1      18.748   6.657  15.043  0.00  0.00    +0.009 A 
ATOM     21  C21 UNL     1      18.952   5.480  15.754  0.00  0.00    -0.017 A 
ATOM     22  C22 UNL     1      18.466   4.246  15.247  0.00  0.00    -0.010 A 
ATOM     23  C23 UNL     1      18.707   3.079  16.019  0.00  0.00    +0.009 A 
ATOM     24  C24 UNL     1      19.396   3.147  17.232  0.00  0.00    +0.001 A 
ATOM     25  C25 UNL     1      19.863   4.368  17.710  0.00  0.00    +0.001 A 
ATOM     26  C26 UNL     1      19.644   5.529  16.976  0.00  0.00    +0.008 A 
ENDROOT
TORSDOF 0
ENDMDL
MODEL 4
REMARK minimizedAffinity -7.76991987
REMARK minimizedRMSD -1
REMARK  Name = /home/tchapet/Post-Doc/ARTICLES-DOSSIERS-DES-ARTICLES-EN-REDACTION/NOUVELS-AXES-DE-RECHERCHE-A-REGARDER-URGEMMENT/ARTICLES-EN-REDACTIONS/ARTICLE_MVOTO/Paper2_JCIM/docking_rerun/ligands/9168.pdb
REMARK  0 active torsions:
REMARK  status: ('A' for Active; 'I' for Inactive)
REMARK                            x       y       z     vdW  Elec       q    Type
REMARK                         _______ _______ _______ _____ _____    ______ ____
ROOT
ATOM      1  C1  UNL     1      19.355   3.042  16.971  0.00  0.00    +0.001 A 
ATOM      2  C2  UNL     1      19.800   4.259  17.475  0.00  0.00    +0.001 A 
ATOM      3  C3  UNL     1      19.550   5.434  16.774  0.00  0.00    +0.008 A 
ATOM      4  C4  UNL     1      18.850   5.400  15.555  0.00  0.00    -0.017 A 
ATOM      5  C5  UNL     1      18.386   4.171  15.021  0.00  0.00    -0.010 A 
ATOM      6  C6  UNL     1      18.658   2.990  15.762  0.00  0.00    +0.009 A 
ATOM      7  C7  UNL     1      17.675   4.175  13.775  0.00  0.00    -0.010 A 
ATOM      8  C8  UNL     1      17.192   2.989  13.197  0.00  0.00    +0.010 A 
ATOM      9  C9  UNL     1      16.505   2.989  11.993  0.00  0.00    +0.010 A 
ATOM     10  C10 UNL     1      16.250   4.177  11.280  0.00  0.00    -0.010 A 
ATOM     11  C11 UNL     1      16.725   5.403  11.836  0.00  0.00    -0.010 A 
ATOM     12  C12 UNL     1      17.439   5.405  13.086  0.00  0.00    -0.010 A 
ATOM     13  C13 UNL     1      17.927   6.598  13.671  0.00  0.00    +0.010 A 
ATOM     14  C14 UNL     1      18.614   6.591  14.877  0.00  0.00    +0.009 A 
ATOM     15  C15 UNL     1      16.470   6.591  11.122  0.00  0.00    +0.010 A 
ATOM     16  C16 UNL     1      15.783   6.592   9.919  0.00  0.00    +0.010 A 
ATOM     17  C17 UNL     1      15.300   5.405   9.341  0.00  0.00    -0.010 A 
ATOM     18  C18 UNL     1      15.536   4.175  10.030  0.00  0.00    -0.010 A 
ATOM     19  C19 UNL     1      15.048   2.982   9.445  0.00  0.00    +0.010 A 
ATOM     20  C20 UNL     1      14.361   2.989   8.239  0.00  0.00    +0.009 A 
ATOM     21  C21 UNL     1      14.125   4.179   7.560  0.00  0.00    -0.017 A 
ATOM     22  C22 UNL     1      14.588   5.410   8.095  0.00  0.00    -0.010 A 
ATOM     23  C23 UNL     1      14.317   6.590   7.354  0.00  0.00    +0.009 A 
ATOM     24  C24 UNL     1      13.619   6.538   6.145  0.00  0.00    +0.001 A 
ATOM     25  C25 UNL     1      13.175   5.321   5.640  0.00  0.00    +0.001 A 
ATOM     26  C26 UNL     1      13.425   4.146   6.342  0.00  0.00    +0.008 A 
ENDROOT
TORSDOF 0
ENDMDL
MODEL 5
REMARK minimizedAffinity -7.61679983
REMARK minimizedRMSD -1
REMARK  Name = /home/tchapet/Post-Doc/ARTICLES-DOSSIERS-DES-ARTICLES-EN-REDACTION/NOUVELS-AXES-DE-RECHERCHE-A-REGARDER-URGEMMENT/ARTICLES-EN-REDACTIONS/ARTICLE_MVOTO/Paper2_JCIM/docking_rerun/ligands/9168.pdb
REMARK  0 active torsions:
REMARK  status: ('A' for Active; 'I' for Inactive)
REMARK                            x       y       z     vdW  Elec       q    Type
REMARK                         _______ _______ _______ _____ _____    ______ ____
ROOT
ATOM      1  C1  UNL     1     -18.267 -32.860  -0.153  0.00  0.00    +0.001 A 
ATOM      2  C2  UNL     1     -17.420 -31.775  -0.352  0.00  0.00    +0.001 A 
ATOM      3  C3  UNL     1     -17.652 -30.582   0.325  0.00  0.00    +0.008 A 
ATOM      4  C4  UNL     1     -18.739 -30.463   1.208  0.00  0.00    -0.017 A 
ATOM      5  C5  UNL     1     -19.616 -31.557   1.427  0.00  0.00    -0.010 A 
ATOM      6  C6  UNL     1     -19.352 -32.761   0.722  0.00  0.00    +0.009 A 
ATOM      7  C7  UNL     1     -20.715 -31.399   2.337  0.00  0.00    -0.010 A 
ATOM      8  C8  UNL     1     -21.616 -32.446   2.593  0.00  0.00    +0.010 A 
ATOM      9  C9  UNL     1     -22.678 -32.298   3.470  0.00  0.00    +0.010 A 
ATOM     10  C10 UNL     1     -22.916 -31.090   4.156  0.00  0.00    -0.010 A 
ATOM     11  C11 UNL     1     -22.021 -30.003   3.923  0.00  0.00    -0.010 A 
ATOM     12  C12 UNL     1     -20.917 -30.156   3.011  0.00  0.00    -0.010 A 
ATOM     13  C13 UNL     1     -20.007 -29.103   2.750  0.00  0.00    +0.010 A 
ATOM     14  C14 UNL     1     -18.945 -29.258   1.870  0.00  0.00    +0.009 A 
ATOM     15  C15 UNL     1     -22.258 -28.796   4.609  0.00  0.00    +0.010 A 
ATOM     16  C16 UNL     1     -23.320 -28.647   5.487  0.00  0.00    +0.010 A 
ATOM     17  C17 UNL     1     -24.222 -29.694   5.743  0.00  0.00    -0.010 A 
ATOM     18  C18 UNL     1     -24.020 -30.938   5.068  0.00  0.00    -0.010 A 
ATOM     19  C19 UNL     1     -24.930 -31.991   5.329  0.00  0.00    +0.010 A 
ATOM     20  C20 UNL     1     -25.991 -31.835   6.209  0.00  0.00    +0.009 A 
ATOM     21  C21 UNL     1     -26.198 -30.630   6.871  0.00  0.00    -0.017 A 
ATOM     22  C22 UNL     1     -25.320 -29.537   6.653  0.00  0.00    -0.010 A 
ATOM     23  C23 UNL     1     -25.585 -28.333   7.358  0.00  0.00    +0.009 A 
ATOM     24  C24 UNL     1     -26.669 -28.233   8.233  0.00  0.00    +0.001 A 
ATOM     25  C25 UNL     1     -27.516 -29.318   8.431  0.00  0.00    +0.001 A 
ATOM     26  C26 UNL     1     -27.284 -30.512   7.755  0.00  0.00    +0.008 A 
ENDROOT
TORSDOF 0
ENDMDL
MODEL 6
REMARK minimizedAffinity -7.55367279
REMARK minimizedRMSD -1
REMARK  Name = /home/tchapet/Post-Doc/ARTICLES-DOSSIERS-DES-ARTICLES-EN-REDACTION/NOUVELS-AXES-DE-RECHERCHE-A-REGARDER-URGEMMENT/ARTICLES-EN-REDACTIONS/ARTICLE_MVOTO/Paper2_JCIM/docking_rerun/ligands/9168.pdb
REMARK  0 active torsions:
REMARK  status: ('A' for Active; 'I' for Inactive)
REMARK                            x       y       z     vdW  Elec       q    Type
REMARK                         _______ _______ _______ _____ _____    ______ ____
ROOT
ATOM      1  C1  UNL     1      19.890   7.420  16.577  0.00  0.00    +0.001 A 
ATOM      2  C2  UNL     1      20.028   6.304  17.395  0.00  0.00    +0.001 A 
ATOM      3  C3  UNL     1      19.482   5.086  17.004  0.00  0.00    +0.008 A 
ATOM      4  C4  UNL     1      18.789   4.974  15.787  0.00  0.00    -0.017 A 
ATOM      5  C5  UNL     1      18.635   6.098  14.936  0.00  0.00    -0.010 A 
ATOM      6  C6  UNL     1      19.205   7.327  15.363  0.00  0.00    +0.009 A 
ATOM      7  C7  UNL     1      17.921   5.947  13.700  0.00  0.00    -0.010 A 
ATOM      8  C8  UNL     1      17.738   7.024  12.817  0.00  0.00    +0.010 A 
ATOM      9  C9  UNL     1      17.049   6.881  11.624  0.00  0.00    +0.010 A 
ATOM     10  C10 UNL     1      16.494   5.649  11.225  0.00  0.00    -0.010 A 
ATOM     11  C11 UNL     1      16.661   4.530  12.095  0.00  0.00    -0.010 A 
ATOM     12  C12 UNL     1      17.376   4.677  13.337  0.00  0.00    -0.010 A 
ATOM     13  C13 UNL     1      17.563   3.593  14.229  0.00  0.00    +0.010 A 
ATOM     14  C14 UNL     1      18.254   3.743  15.423  0.00  0.00    +0.009 A 
ATOM     15  C15 UNL     1      16.106   3.298  11.697  0.00  0.00    +0.010 A 
ATOM     16  C16 UNL     1      15.417   3.154  10.503  0.00  0.00    +0.010 A 
ATOM     17  C17 UNL     1      15.233   4.233   9.621  0.00  0.00    -0.010 A 
ATOM     18  C18 UNL     1      15.779   5.503   9.984  0.00  0.00    -0.010 A 
ATOM     19  C19 UNL     1      15.591   6.586   9.092  0.00  0.00    +0.010 A 
ATOM     20  C20 UNL     1      14.900   6.436   7.898  0.00  0.00    +0.009 A 
ATOM     21  C21 UNL     1      14.366   5.206   7.534  0.00  0.00    -0.017 A 
ATOM     22  C22 UNL     1      14.520   4.080   8.385  0.00  0.00    -0.010 A 
ATOM     23  C23 UNL     1      13.950   2.852   7.957  0.00  0.00    +0.009 A 
ATOM     24  C24 UNL     1      13.265   2.759   6.744  0.00  0.00    +0.001 A 
ATOM     25  C25 UNL     1      13.126   3.876   5.925  0.00  0.00    +0.001 A 
ATOM     26  C26 UNL     1      13.673   5.094   6.316  0.00  0.00    +0.008 A 
ENDROOT
TORSDOF 0
ENDMDL
MODEL 7
REMARK minimizedAffinity -7.52137852
REMARK minimizedRMSD -1
REMARK  Name = /home/tchapet/Post-Doc/ARTICLES-DOSSIERS-DES-ARTICLES-EN-REDACTION/NOUVELS-AXES-DE-RECHERCHE-A-REGARDER-URGEMMENT/ARTICLES-EN-REDACTIONS/ARTICLE_MVOTO/Paper2_JCIM/docking_rerun/ligands/9168.pdb
REMARK  0 active torsions:
REMARK  status: ('A' for Active; 'I' for Inactive)
REMARK                            x       y       z     vdW  Elec       q    Type
REMARK                         _______ _______ _______ _____ _____    ______ ____
ROOT
ATOM      1  C1  UNL     1      13.240   2.877   6.717  0.00  0.00    +0.001 A 
ATOM      2  C2  UNL     1      13.121   4.017   5.929  0.00  0.00    +0.001 A 
ATOM      3  C3  UNL     1      13.696   5.213   6.348  0.00  0.00    +0.008 A 
ATOM      4  C4  UNL     1      14.397   5.278   7.565  0.00  0.00    -0.017 A 
ATOM      5  C5  UNL     1      14.531   4.128   8.385  0.00  0.00    -0.010 A 
ATOM      6  C6  UNL     1      13.933   2.923   7.929  0.00  0.00    +0.009 A 
ATOM      7  C7  UNL     1      15.254   4.232   9.620  0.00  0.00    -0.010 A 
ATOM      8  C8  UNL     1      15.420   3.128  10.473  0.00  0.00    +0.010 A 
ATOM      9  C9  UNL     1      16.116   3.225  11.667  0.00  0.00    +0.010 A 
ATOM     10  C10 UNL     1      16.699   4.435  12.094  0.00  0.00    -0.010 A 
ATOM     11  C11 UNL     1      16.553   5.579  11.254  0.00  0.00    -0.010 A 
ATOM     12  C12 UNL     1      15.829   5.480  10.014  0.00  0.00    -0.010 A 
ATOM     13  C13 UNL     1      15.659   6.591   9.151  0.00  0.00    +0.010 A 
ATOM     14  C14 UNL     1      14.961   6.487   7.957  0.00  0.00    +0.009 A 
ATOM     15  C15 UNL     1      17.136   6.788  11.682  0.00  0.00    +0.010 A 
ATOM     16  C16 UNL     1      17.833   6.886  12.875  0.00  0.00    +0.010 A 
ATOM     17  C17 UNL     1      17.998   5.781  13.728  0.00  0.00    -0.010 A 
ATOM     18  C18 UNL     1      17.423   4.533  13.335  0.00  0.00    -0.010 A 
ATOM     19  C19 UNL     1      17.593   3.423  14.197  0.00  0.00    +0.010 A 
ATOM     20  C20 UNL     1      18.291   3.527  15.391  0.00  0.00    +0.009 A 
ATOM     21  C21 UNL     1      18.855   4.736  15.784  0.00  0.00    -0.017 A 
ATOM     22  C22 UNL     1      18.721   5.886  14.963  0.00  0.00    -0.010 A 
ATOM     23  C23 UNL     1      19.319   7.090  15.420  0.00  0.00    +0.009 A 
ATOM     24  C24 UNL     1      20.012   7.137  16.632  0.00  0.00    +0.001 A 
ATOM     25  C25 UNL     1      20.131   5.997  17.420  0.00  0.00    +0.001 A 
ATOM     26  C26 UNL     1      19.556   4.801  17.000  0.00  0.00    +0.008 A 
ENDROOT
TORSDOF 0
ENDMDL
MODEL 8
REMARK minimizedAffinity -7.4643712
REMARK minimizedRMSD -1
REMARK  Name = /home/tchapet/Post-Doc/ARTICLES-DOSSIERS-DES-ARTICLES-EN-REDACTION/NOUVELS-AXES-DE-RECHERCHE-A-REGARDER-URGEMMENT/ARTICLES-EN-REDACTIONS/ARTICLE_MVOTO/Paper2_JCIM/docking_rerun/ligands/9168.pdb
REMARK  0 active torsions:
REMARK  status: ('A' for Active; 'I' for Inactive)
REMARK                            x       y       z     vdW  Elec       q    Type
REMARK                         _______ _______ _______ _____ _____    ______ ____
ROOT
ATOM      1  C1  UNL     1       5.566  -1.192   0.934  0.00  0.00    +0.001 A 
ATOM      2  C2  UNL     1       6.413  -0.653   1.896  0.00  0.00    +0.001 A 
ATOM      3  C3  UNL     1       6.386  -1.144   3.197  0.00  0.00    +0.008 A 
ATOM      4  C4  UNL     1       5.507  -2.182   3.549  0.00  0.00    -0.017 A 
ATOM      5  C5  UNL     1       4.633  -2.748   2.585  0.00  0.00    -0.010 A 
ATOM      6  C6  UNL     1       4.685  -2.225   1.265  0.00  0.00    +0.009 A 
ATOM      7  C7  UNL     1       3.749  -3.807   2.979  0.00  0.00    -0.010 A 
ATOM      8  C8  UNL     1       2.862  -4.406   2.069  0.00  0.00    +0.010 A 
ATOM      9  C9  UNL     1       2.006  -5.428   2.447  0.00  0.00    +0.010 A 
ATOM     10  C10 UNL     1       1.977  -5.927   3.764  0.00  0.00    -0.010 A 
ATOM     11  C11 UNL     1       2.864  -5.345   4.718  0.00  0.00    -0.010 A 
ATOM     12  C12 UNL     1       3.753  -4.282   4.327  0.00  0.00    -0.010 A 
ATOM     13  C13 UNL     1       4.649  -3.676   5.242  0.00  0.00    +0.010 A 
ATOM     14  C14 UNL     1       5.503  -2.653   4.857  0.00  0.00    +0.009 A 
ATOM     15  C15 UNL     1       2.834  -5.844   6.035  0.00  0.00    +0.010 A 
ATOM     16  C16 UNL     1       1.979  -6.867   6.414  0.00  0.00    +0.010 A 
ATOM     17  C17 UNL     1       1.092  -7.465   5.503  0.00  0.00    -0.010 A 
ATOM     18  C18 UNL     1       1.087  -6.990   4.155  0.00  0.00    -0.010 A 
ATOM     19  C19 UNL     1       0.192  -7.595   3.240  0.00  0.00    +0.010 A 
ATOM     20  C20 UNL     1      -0.662  -8.619   3.625  0.00  0.00    +0.009 A 
ATOM     21  C21 UNL     1      -0.666  -9.090   4.933  0.00  0.00    -0.017 A 
ATOM     22  C22 UNL     1       0.208  -8.524   5.898  0.00  0.00    -0.010 A 
ATOM     23  C23 UNL     1       0.155  -9.047   7.217  0.00  0.00    +0.009 A 
ATOM     24  C24 UNL     1      -0.725 -10.080   7.549  0.00  0.00    +0.001 A 
ATOM     25  C25 UNL     1      -1.573 -10.619   6.586  0.00  0.00    +0.001 A 
ATOM     26  C26 UNL     1      -1.546 -10.128   5.285  0.00  0.00    +0.008 A 
ENDROOT
TORSDOF 0
ENDMDL
MODEL 9
REMARK minimizedAffinity -7.4272027
REMARK minimizedRMSD -1
REMARK  Name = /home/tchapet/Post-Doc/ARTICLES-DOSSIERS-DES-ARTICLES-EN-REDACTION/NOUVELS-AXES-DE-RECHERCHE-A-REGARDER-URGEMMENT/ARTICLES-EN-REDACTIONS/ARTICLE_MVOTO/Paper2_JCIM/docking_rerun/ligands/9168.pdb
REMARK  0 active torsions:
REMARK  status: ('A' for Active; 'I' for Inactive)
REMARK                            x       y       z     vdW  Elec       q    Type
REMARK                         _______ _______ _______ _____ _____    ______ ____
ROOT
ATOM      1  C1  UNL     1      13.734  10.537   4.910  0.00  0.00    +0.001 A 
ATOM      2  C2  UNL     1      12.935   9.938   3.942  0.00  0.00    +0.001 A 
ATOM      3  C3  UNL     1      12.663   8.576   4.014  0.00  0.00    +0.008 A 
ATOM      4  C4  UNL     1      13.191   7.798   5.058  0.00  0.00    -0.017 A 
ATOM      5  C5  UNL     1      14.009   8.387   6.057  0.00  0.00    -0.010 A 
ATOM      6  C6  UNL     1      14.268   9.780   5.955  0.00  0.00    +0.009 A 
ATOM      7  C7  UNL     1      14.531   7.561   7.108  0.00  0.00    -0.010 A 
ATOM      8  C8  UNL     1      15.345   8.088   8.124  0.00  0.00    +0.010 A 
ATOM      9  C9  UNL     1      15.851   7.294   9.141  0.00  0.00    +0.010 A 
ATOM     10  C10 UNL     1      15.578   5.914   9.216  0.00  0.00    -0.010 A 
ATOM     11  C11 UNL     1      14.752   5.342   8.202  0.00  0.00    -0.010 A 
ATOM     12  C12 UNL     1      14.226   6.165   7.144  0.00  0.00    -0.010 A 
ATOM     13  C13 UNL     1      13.404   5.638   6.119  0.00  0.00    +0.010 A 
ATOM     14  C14 UNL     1      12.901   6.439   5.104  0.00  0.00    +0.009 A 
ATOM     15  C15 UNL     1      14.478   3.962   8.277  0.00  0.00    +0.010 A 
ATOM     16  C16 UNL     1      14.984   3.167   9.293  0.00  0.00    +0.010 A 
ATOM     17  C17 UNL     1      15.799   3.695  10.309  0.00  0.00    -0.010 A 
ATOM     18  C18 UNL     1      16.104   5.091  10.273  0.00  0.00    -0.010 A 
ATOM     19  C19 UNL     1      16.925   5.618  11.299  0.00  0.00    +0.010 A 
ATOM     20  C20 UNL     1      17.429   4.817  12.314  0.00  0.00    +0.009 A 
ATOM     21  C21 UNL     1      17.139   3.458  12.360  0.00  0.00    -0.017 A 
ATOM     22  C22 UNL     1      16.320   2.869  11.361  0.00  0.00    -0.010 A 
ATOM     23  C23 UNL     1      16.062   1.476  11.462  0.00  0.00    +0.009 A 
ATOM     24  C24 UNL     1      16.595   0.718  12.508  0.00  0.00    +0.001 A 
ATOM     25  C25 UNL     1      17.395   1.318  13.476  0.00  0.00    +0.001 A 
ATOM     26  C26 UNL     1      17.667   2.680  13.404  0.00  0.00    +0.008 A 
ENDROOT
TORSDOF 0
ENDMDL
