MODEL 1
REMARK minimizedAffinity -7.93944597
REMARK minimizedRMSD -1
REMARK  Name = /home/tchapet/Post-Doc/ARTICLES-DOSSIERS-DES-ARTICLES-EN-REDACTION/NOUVELS-AXES-DE-RECHERCHE-A-REGARDER-URGEMMENT/ARTICLES-EN-REDACTIONS/ARTICLE_MVOTO/Paper2_JCIM/docking_rerun/ligands/9168.pdb
REMARK  0 active torsions:
REMARK  status: ('A' for Active; 'I' for Inactive)
REMARK                            x       y       z     vdW  Elec       q    Type
REMARK                         _______ _______ _______ _____ _____    ______ ____
ROOT
ATOM      1  C1  UNL     1       3.262   7.568  22.576  0.00  0.00    +0.001 A 
ATOM      2  C2  UNL     1       3.275   6.870  21.373  0.00  0.00    +0.001 A 
ATOM      3  C3  UNL     1       2.635   7.400  20.257  0.00  0.00    +0.008 A 
ATOM      4  C4  UNL     1       1.971   8.636  20.336  0.00  0.00    -0.017 A 
ATOM      5  C5  UNL     1       1.944   9.366  21.553  0.00  0.00    -0.010 A 
ATOM      6  C6  UNL     1       2.607   8.799  22.673  0.00  0.00    +0.009 A 
ATOM      7  C7  UNL     1       1.257  10.625  21.596  0.00  0.00    -0.010 A 
ATOM      8  C8  UNL     1       1.197  11.392  22.772  0.00  0.00    +0.010 A 
ATOM      9  C9  UNL     1       0.534  12.608  22.817  0.00  0.00    +0.010 A 
ATOM     10  C10 UNL     1      -0.116  13.146  21.689  0.00  0.00    -0.010 A 
ATOM     11  C11 UNL     1      -0.076  12.397  20.476  0.00  0.00    -0.010 A 
ATOM     12  C12 UNL     1       0.611  11.132  20.426  0.00  0.00    -0.010 A 
ATOM     13  C13 UNL     1       0.675  10.357  19.243  0.00  0.00    +0.010 A 
ATOM     14  C14 UNL     1       1.340   9.140  19.205  0.00  0.00    +0.009 A 
ATOM     15  C15 UNL     1      -0.726  12.935  19.348  0.00  0.00    +0.010 A 
ATOM     16  C16 UNL     1      -1.389  14.151  19.392  0.00  0.00    +0.010 A 
ATOM     17  C17 UNL     1      -1.449  14.918  20.569  0.00  0.00    -0.010 A 
ATOM     18  C18 UNL     1      -0.804  14.410  21.739  0.00  0.00    -0.010 A 
ATOM     19  C19 UNL     1      -0.867  15.186  22.922  0.00  0.00    +0.010 A 
ATOM     20  C20 UNL     1      -1.533  16.403  22.960  0.00  0.00    +0.009 A 
ATOM     21  C21 UNL     1      -2.164  16.907  21.829  0.00  0.00    -0.017 A 
ATOM     22  C22 UNL     1      -2.136  16.177  20.611  0.00  0.00    -0.010 A 
ATOM     23  C23 UNL     1      -2.800  16.744  19.492  0.00  0.00    +0.009 A 
ATOM     24  C24 UNL     1      -3.454  17.975  19.588  0.00  0.00    +0.001 A 
ATOM     25  C25 UNL     1      -3.468  18.672  20.792  0.00  0.00    +0.001 A 
ATOM     26  C26 UNL     1      -2.827  18.143  21.908  0.00  0.00    +0.008 A 
ENDROOT
TORSDOF 0
ENDMDL
MODEL 2
REMARK minimizedAffinity -7.90410614
REMARK minimizedRMSD -1
REMARK  Name = /home/tchapet/Post-Doc/ARTICLES-DOSSIERS-DES-ARTICLES-EN-REDACTION/NOUVELS-AXES-DE-RECHERCHE-A-REGARDER-URGEMMENT/ARTICLES-EN-REDACTIONS/ARTICLE_MVOTO/Paper2_JCIM/docking_rerun/ligands/9168.pdb
REMARK  0 active torsions:
REMARK  status: ('A' for Active; 'I' for Inactive)
REMARK                            x       y       z     vdW  Elec       q    Type
REMARK                         _______ _______ _______ _____ _____    ______ ____
ROOT
ATOM      1  C1  UNL     1      -3.528  18.111  19.577  0.00  0.00    +0.001 A 
ATOM      2  C2  UNL     1      -3.541  18.795  20.788  0.00  0.00    +0.001 A 
ATOM      3  C3  UNL     1      -2.897  18.254  21.897  0.00  0.00    +0.008 A 
ATOM      4  C4  UNL     1      -2.235  17.018  21.803  0.00  0.00    -0.017 A 
ATOM      5  C5  UNL     1      -2.208  16.302  20.578  0.00  0.00    -0.010 A 
ATOM      6  C6  UNL     1      -2.874  16.882  19.465  0.00  0.00    +0.009 A 
ATOM      7  C7  UNL     1      -1.522  15.044  20.519  0.00  0.00    -0.010 A 
ATOM      8  C8  UNL     1      -1.462  14.291  19.334  0.00  0.00    +0.010 A 
ATOM      9  C9  UNL     1      -0.801  13.075  19.274  0.00  0.00    +0.010 A 
ATOM     10  C10 UNL     1      -0.149  12.524  20.395  0.00  0.00    -0.010 A 
ATOM     11  C11 UNL     1      -0.186  13.260  21.617  0.00  0.00    -0.010 A 
ATOM     12  C12 UNL     1      -0.874  14.523  21.682  0.00  0.00    -0.010 A 
ATOM     13  C13 UNL     1      -0.936  15.285  22.874  0.00  0.00    +0.010 A 
ATOM     14  C14 UNL     1      -1.600  16.502  22.927  0.00  0.00    +0.009 A 
ATOM     15  C15 UNL     1       0.466  12.709  22.738  0.00  0.00    +0.010 A 
ATOM     16  C16 UNL     1       1.128  11.493  22.678  0.00  0.00    +0.010 A 
ATOM     17  C17 UNL     1       1.187  10.740  21.493  0.00  0.00    -0.010 A 
ATOM     18  C18 UNL     1       0.539  11.260  20.330  0.00  0.00    -0.010 A 
ATOM     19  C19 UNL     1       0.601  10.498  19.138  0.00  0.00    +0.010 A 
ATOM     20  C20 UNL     1       1.266   9.282  19.084  0.00  0.00    +0.009 A 
ATOM     21  C21 UNL     1       1.900   8.766  20.209  0.00  0.00    -0.017 A 
ATOM     22  C22 UNL     1       1.874   9.482  21.434  0.00  0.00    -0.010 A 
ATOM     23  C23 UNL     1       2.539   8.902  22.546  0.00  0.00    +0.009 A 
ATOM     24  C24 UNL     1       3.194   7.673  22.435  0.00  0.00    +0.001 A 
ATOM     25  C25 UNL     1       3.206   6.989  21.223  0.00  0.00    +0.001 A 
ATOM     26  C26 UNL     1       2.563   7.530  20.115  0.00  0.00    +0.008 A 
ENDROOT
TORSDOF 0
ENDMDL
MODEL 3
REMARK minimizedAffinity -7.77834272
REMARK minimizedRMSD -1
REMARK  Name = /home/tchapet/Post-Doc/ARTICLES-DOSSIERS-DES-ARTICLES-EN-REDACTION/NOUVELS-AXES-DE-RECHERCHE-A-REGARDER-URGEMMENT/ARTICLES-EN-REDACTIONS/ARTICLE_MVOTO/Paper2_JCIM/docking_rerun/ligands/9168.pdb
REMARK  0 active torsions:
REMARK  status: ('A' for Active; 'I' for Inactive)
REMARK                            x       y       z     vdW  Elec       q    Type
REMARK                         _______ _______ _______ _____ _____    ______ ____
ROOT
ATOM      1  C1  UNL     1       4.222  23.159  33.054  0.00  0.00    +0.001 A 
ATOM      2  C2  UNL     1       4.582  24.331  33.711  0.00  0.00    +0.001 A 
ATOM      3  C3  UNL     1       4.322  25.564  33.122  0.00  0.00    +0.008 A 
ATOM      4  C4  UNL     1       3.697  25.635  31.865  0.00  0.00    -0.017 A 
ATOM      5  C5  UNL     1       3.320  24.454  31.176  0.00  0.00    -0.010 A 
ATOM      6  C6  UNL     1       3.599  23.211  31.804  0.00  0.00    +0.009 A 
ATOM      7  C7  UNL     1       2.684  24.565  29.895  0.00  0.00    -0.010 A 
ATOM      8  C8  UNL     1       2.288  23.431  29.166  0.00  0.00    +0.010 A 
ATOM      9  C9  UNL     1       1.674  23.535  27.929  0.00  0.00    +0.010 A 
ATOM     10  C10 UNL     1       1.410  24.782  27.329  0.00  0.00    -0.010 A 
ATOM     11  C11 UNL     1       1.796  25.958  28.039  0.00  0.00    -0.010 A 
ATOM     12  C12 UNL     1       2.435  25.852  29.325  0.00  0.00    -0.010 A 
ATOM     13  C13 UNL     1       2.835  26.993  30.062  0.00  0.00    +0.010 A 
ATOM     14  C14 UNL     1       3.450  26.882  31.301  0.00  0.00    +0.009 A 
ATOM     15  C15 UNL     1       1.532  27.206  27.440  0.00  0.00    +0.010 A 
ATOM     16  C16 UNL     1       0.918  27.310  26.203  0.00  0.00    +0.010 A 
ATOM     17  C17 UNL     1       0.522  26.175  25.474  0.00  0.00    -0.010 A 
ATOM     18  C18 UNL     1       0.771  24.888  26.044  0.00  0.00    -0.010 A 
ATOM     19  C19 UNL     1       0.371  23.747  25.306  0.00  0.00    +0.010 A 
ATOM     20  C20 UNL     1      -0.244  23.859  24.067  0.00  0.00    +0.009 A 
ATOM     21  C21 UNL     1      -0.491  25.105  23.504  0.00  0.00    -0.017 A 
ATOM     22  C22 UNL     1      -0.115  26.288  24.193  0.00  0.00    -0.010 A 
ATOM     23  C23 UNL     1      -0.393  27.530  23.564  0.00  0.00    +0.009 A 
ATOM     24  C24 UNL     1      -1.016  27.582  22.315  0.00  0.00    +0.001 A 
ATOM     25  C25 UNL     1      -1.376  26.410  21.658  0.00  0.00    +0.001 A 
ATOM     26  C26 UNL     1      -1.116  25.177  22.247  0.00  0.00    +0.008 A 
ENDROOT
TORSDOF 0
ENDMDL
MODEL 4
REMARK minimizedAffinity -7.72749615
REMARK minimizedRMSD -1
REMARK  Name = /home/tchapet/Post-Doc/ARTICLES-DOSSIERS-DES-ARTICLES-EN-REDACTION/NOUVELS-AXES-DE-RECHERCHE-A-REGARDER-URGEMMENT/ARTICLES-EN-REDACTIONS/ARTICLE_MVOTO/Paper2_JCIM/docking_rerun/ligands/9168.pdb
REMARK  0 active torsions:
REMARK  status: ('A' for Active; 'I' for Inactive)
REMARK                            x       y       z     vdW  Elec       q    Type
REMARK                         _______ _______ _______ _____ _____    ______ ____
ROOT
ATOM      1  C1  UNL     1      -1.280  16.461  23.733  0.00  0.00    +0.001 A 
ATOM      2  C2  UNL     1      -1.913  17.045  22.641  0.00  0.00    +0.001 A 
ATOM      3  C3  UNL     1      -1.917  16.393  21.412  0.00  0.00    +0.008 A 
ATOM      4  C4  UNL     1      -1.284  15.147  21.265  0.00  0.00    -0.017 A 
ATOM      5  C5  UNL     1      -0.632  14.532  22.364  0.00  0.00    -0.010 A 
ATOM      6  C6  UNL     1      -0.646  15.222  23.605  0.00  0.00    +0.009 A 
ATOM      7  C7  UNL     1       0.003  13.259  22.177  0.00  0.00    -0.010 A 
ATOM      8  C8  UNL     1       0.664  12.602  23.228  0.00  0.00    +0.010 A 
ATOM      9  C9  UNL     1       1.279  11.373  23.051  0.00  0.00    +0.010 A 
ATOM     10  C10 UNL     1       1.277  10.711  21.807  0.00  0.00    -0.010 A 
ATOM     11  C11 UNL     1       0.615  11.346  20.714  0.00  0.00    -0.010 A 
ATOM     12  C12 UNL     1      -0.024  12.623  20.897  0.00  0.00    -0.010 A 
ATOM     13  C13 UNL     1      -0.691  13.288  19.840  0.00  0.00    +0.010 A 
ATOM     14  C14 UNL     1      -1.305  14.519  20.024  0.00  0.00    +0.009 A 
ATOM     15  C15 UNL     1       0.613  10.684  19.471  0.00  0.00    +0.010 A 
ATOM     16  C16 UNL     1       1.227   9.455  19.292  0.00  0.00    +0.010 A 
ATOM     17  C17 UNL     1       1.888   8.798  20.345  0.00  0.00    -0.010 A 
ATOM     18  C18 UNL     1       1.916   9.433  21.625  0.00  0.00    -0.010 A 
ATOM     19  C19 UNL     1       2.583   8.768  22.682  0.00  0.00    +0.010 A 
ATOM     20  C20 UNL     1       3.197   7.538  22.497  0.00  0.00    +0.009 A 
ATOM     21  C21 UNL     1       3.176   6.910  21.257  0.00  0.00    -0.017 A 
ATOM     22  C22 UNL     1       2.523   7.525  20.156  0.00  0.00    -0.010 A 
ATOM     23  C23 UNL     1       2.538   6.834  18.916  0.00  0.00    +0.009 A 
ATOM     24  C24 UNL     1       3.171   5.596  18.788  0.00  0.00    +0.001 A 
ATOM     25  C25 UNL     1       3.805   5.012  19.880  0.00  0.00    +0.001 A 
ATOM     26  C26 UNL     1       3.809   5.664  21.109  0.00  0.00    +0.008 A 
ENDROOT
TORSDOF 0
ENDMDL
MODEL 5
REMARK minimizedAffinity -7.72351885
REMARK minimizedRMSD -1
REMARK  Name = /home/tchapet/Post-Doc/ARTICLES-DOSSIERS-DES-ARTICLES-EN-REDACTION/NOUVELS-AXES-DE-RECHERCHE-A-REGARDER-URGEMMENT/ARTICLES-EN-REDACTIONS/ARTICLE_MVOTO/Paper2_JCIM/docking_rerun/ligands/9168.pdb
REMARK  0 active torsions:
REMARK  status: ('A' for Active; 'I' for Inactive)
REMARK                            x       y       z     vdW  Elec       q    Type
REMARK                         _______ _______ _______ _____ _____    ______ ____
ROOT
ATOM      1  C1  UNL     1      -2.988  18.380  21.891  0.00  0.00    +0.001 A 
ATOM      2  C2  UNL     1      -3.604  18.684  20.682  0.00  0.00    +0.001 A 
ATOM      3  C3  UNL     1      -3.494  17.806  19.609  0.00  0.00    +0.008 A 
ATOM      4  C4  UNL     1      -2.763  16.613  19.736  0.00  0.00    -0.017 A 
ATOM      5  C5  UNL     1      -2.125  16.282  20.960  0.00  0.00    -0.010 A 
ATOM      6  C6  UNL     1      -2.257  17.199  22.037  0.00  0.00    +0.009 A 
ATOM      7  C7  UNL     1      -1.387  15.055  21.054  0.00  0.00    -0.010 A 
ATOM      8  C8  UNL     1      -0.736  14.675  22.239  0.00  0.00    +0.010 A 
ATOM      9  C9  UNL     1      -0.022  13.491  22.333  0.00  0.00    +0.010 A 
ATOM     10  C10 UNL     1       0.092  12.600  21.247  0.00  0.00    -0.010 A 
ATOM     11  C11 UNL     1      -0.557  12.951  20.026  0.00  0.00    -0.010 A 
ATOM     12  C12 UNL     1      -1.299  14.181  19.926  0.00  0.00    -0.010 A 
ATOM     13  C13 UNL     1      -1.957  14.568  18.733  0.00  0.00    +0.010 A 
ATOM     14  C14 UNL     1      -2.670  15.755  18.646  0.00  0.00    +0.009 A 
ATOM     15  C15 UNL     1      -0.444  12.061  18.940  0.00  0.00    +0.010 A 
ATOM     16  C16 UNL     1       0.270  10.877  19.033  0.00  0.00    +0.010 A 
ATOM     17  C17 UNL     1       0.922  10.496  20.219  0.00  0.00    -0.010 A 
ATOM     18  C18 UNL     1       0.834  11.370  21.347  0.00  0.00    -0.010 A 
ATOM     19  C19 UNL     1       1.492  10.983  22.539  0.00  0.00    +0.010 A 
ATOM     20  C20 UNL     1       2.205   9.797  22.626  0.00  0.00    +0.009 A 
ATOM     21  C21 UNL     1       2.297   8.939  21.536  0.00  0.00    -0.017 A 
ATOM     22  C22 UNL     1       1.659   9.269  20.312  0.00  0.00    -0.010 A 
ATOM     23  C23 UNL     1       1.791   8.353  19.236  0.00  0.00    +0.009 A 
ATOM     24  C24 UNL     1       2.522   7.171  19.380  0.00  0.00    +0.001 A 
ATOM     25  C25 UNL     1       3.139   6.868  20.590  0.00  0.00    +0.001 A 
ATOM     26  C26 UNL     1       3.028   7.745  21.664  0.00  0.00    +0.008 A 
ENDROOT
TORSDOF 0
ENDMDL
MODEL 6
REMARK minimizedAffinity -7.71964693
REMARK minimizedRMSD -1
REMARK  Name = /home/tchapet/Post-Doc/ARTICLES-DOSSIERS-DES-ARTICLES-EN-REDACTION/NOUVELS-AXES-DE-RECHERCHE-A-REGARDER-URGEMMENT/ARTICLES-EN-REDACTIONS/ARTICLE_MVOTO/Paper2_JCIM/docking_rerun/ligands/9168.pdb
REMARK  0 active torsions:
REMARK  status: ('A' for Active; 'I' for Inactive)
REMARK                            x       y       z     vdW  Elec       q    Type
REMARK                         _______ _______ _______ _____ _____    ______ ____
ROOT
ATOM      1  C1  UNL     1       3.202   5.612  18.762  0.00  0.00    +0.001 A 
ATOM      2  C2  UNL     1       3.832   5.028  19.856  0.00  0.00    +0.001 A 
ATOM      3  C3  UNL     1       3.827   5.677  21.087  0.00  0.00    +0.008 A 
ATOM      4  C4  UNL     1       3.190   6.921  21.233  0.00  0.00    -0.017 A 
ATOM      5  C5  UNL     1       2.542   7.536  20.131  0.00  0.00    -0.010 A 
ATOM      6  C6  UNL     1       2.564   6.848  18.889  0.00  0.00    +0.009 A 
ATOM      7  C7  UNL     1       1.901   8.807  20.318  0.00  0.00    -0.010 A 
ATOM      8  C8  UNL     1       1.243   9.463  19.264  0.00  0.00    +0.010 A 
ATOM      9  C9  UNL     1       0.625  10.690  19.441  0.00  0.00    +0.010 A 
ATOM     10  C10 UNL     1       0.618  11.351  20.685  0.00  0.00    -0.010 A 
ATOM     11  C11 UNL     1       1.276  10.715  21.781  0.00  0.00    -0.010 A 
ATOM     12  C12 UNL     1       1.920   9.440  21.599  0.00  0.00    -0.010 A 
ATOM     13  C13 UNL     1       2.584   8.775  22.658  0.00  0.00    +0.010 A 
ATOM     14  C14 UNL     1       3.202   7.546  22.475  0.00  0.00    +0.009 A 
ATOM     15  C15 UNL     1       1.270  11.375  23.025  0.00  0.00    +0.010 A 
ATOM     16  C16 UNL     1       0.651  12.602  23.203  0.00  0.00    +0.010 A 
ATOM     17  C17 UNL     1      -0.007  13.258  22.148  0.00  0.00    -0.010 A 
ATOM     18  C18 UNL     1      -0.026  12.625  20.867  0.00  0.00    -0.010 A 
ATOM     19  C19 UNL     1      -0.690  13.290  19.807  0.00  0.00    +0.010 A 
ATOM     20  C20 UNL     1      -1.307  14.519  19.991  0.00  0.00    +0.009 A 
ATOM     21  C21 UNL     1      -1.296  15.144  21.233  0.00  0.00    -0.017 A 
ATOM     22  C22 UNL     1      -0.647  14.529  22.336  0.00  0.00    -0.010 A 
ATOM     23  C23 UNL     1      -0.670  15.218  23.577  0.00  0.00    +0.009 A 
ATOM     24  C24 UNL     1      -1.308  16.453  23.704  0.00  0.00    +0.001 A 
ATOM     25  C25 UNL     1      -1.938  17.037  22.609  0.00  0.00    +0.001 A 
ATOM     26  C26 UNL     1      -1.933  16.388  21.379  0.00  0.00    +0.008 A 
ENDROOT
TORSDOF 0
ENDMDL
MODEL 7
REMARK minimizedAffinity -7.71628571
REMARK minimizedRMSD -1
REMARK  Name = /home/tchapet/Post-Doc/ARTICLES-DOSSIERS-DES-ARTICLES-EN-REDACTION/NOUVELS-AXES-DE-RECHERCHE-A-REGARDER-URGEMMENT/ARTICLES-EN-REDACTIONS/ARTICLE_MVOTO/Paper2_JCIM/docking_rerun/ligands/9168.pdb
REMARK  0 active torsions:
REMARK  status: ('A' for Active; 'I' for Inactive)
REMARK                            x       y       z     vdW  Elec       q    Type
REMARK                         _______ _______ _______ _____ _____    ______ ____
ROOT
ATOM      1  C1  UNL     1       2.545   7.145  19.412  0.00  0.00    +0.001 A 
ATOM      2  C2  UNL     1       3.154   6.838  20.624  0.00  0.00    +0.001 A 
ATOM      3  C3  UNL     1       3.040   7.714  21.699  0.00  0.00    +0.008 A 
ATOM      4  C4  UNL     1       2.313   8.910  21.569  0.00  0.00    -0.017 A 
ATOM      5  C5  UNL     1       1.683   9.244  20.342  0.00  0.00    -0.010 A 
ATOM      6  C6  UNL     1       1.818   8.329  19.264  0.00  0.00    +0.009 A 
ATOM      7  C7  UNL     1       0.949  10.473  20.246  0.00  0.00    -0.010 A 
ATOM      8  C8  UNL     1       0.304  10.857  19.058  0.00  0.00    +0.010 A 
ATOM      9  C9  UNL     1      -0.405  12.043  18.961  0.00  0.00    +0.010 A 
ATOM     10  C10 UNL     1      -0.522  12.933  20.048  0.00  0.00    -0.010 A 
ATOM     11  C11 UNL     1       0.118  12.577  21.273  0.00  0.00    -0.010 A 
ATOM     12  C12 UNL     1       0.856  11.345  21.375  0.00  0.00    -0.010 A 
ATOM     13  C13 UNL     1       1.507  10.955  22.570  0.00  0.00    +0.010 A 
ATOM     14  C14 UNL     1       2.215   9.766  22.660  0.00  0.00    +0.009 A 
ATOM     15  C15 UNL     1       0.001  13.467  22.359  0.00  0.00    +0.010 A 
ATOM     16  C16 UNL     1      -0.709  14.653  22.263  0.00  0.00    +0.010 A 
ATOM     17  C17 UNL     1      -1.353  15.037  21.074  0.00  0.00    -0.010 A 
ATOM     18  C18 UNL     1      -1.260  14.165  19.946  0.00  0.00    -0.010 A 
ATOM     19  C19 UNL     1      -1.911  14.555  18.750  0.00  0.00    +0.010 A 
ATOM     20  C20 UNL     1      -2.620  15.744  18.660  0.00  0.00    +0.009 A 
ATOM     21  C21 UNL     1      -2.717  16.600  19.752  0.00  0.00    -0.017 A 
ATOM     22  C22 UNL     1      -2.087  16.266  20.979  0.00  0.00    -0.010 A 
ATOM     23  C23 UNL     1      -2.223  17.181  22.056  0.00  0.00    +0.009 A 
ATOM     24  C24 UNL     1      -2.950  18.365  21.909  0.00  0.00    +0.001 A 
ATOM     25  C25 UNL     1      -3.558  18.672  20.696  0.00  0.00    +0.001 A 
ATOM     26  C26 UNL     1      -3.444  17.796  19.622  0.00  0.00    +0.008 A 
ENDROOT
TORSDOF 0
ENDMDL
MODEL 8
REMARK minimizedAffinity -7.7153883
REMARK minimizedRMSD -1
REMARK  Name = /home/tchapet/Post-Doc/ARTICLES-DOSSIERS-DES-ARTICLES-EN-REDACTION/NOUVELS-AXES-DE-RECHERCHE-A-REGARDER-URGEMMENT/ARTICLES-EN-REDACTIONS/ARTICLE_MVOTO/Paper2_JCIM/docking_rerun/ligands/9168.pdb
REMARK  0 active torsions:
REMARK  status: ('A' for Active; 'I' for Inactive)
REMARK                            x       y       z     vdW  Elec       q    Type
REMARK                         _______ _______ _______ _____ _____    ______ ____
ROOT
ATOM      1  C1  UNL     1      -1.131  27.613  22.264  0.00  0.00    +0.001 A 
ATOM      2  C2  UNL     1      -1.474  26.440  21.600  0.00  0.00    +0.001 A 
ATOM      3  C3  UNL     1      -1.192  25.207  22.180  0.00  0.00    +0.008 A 
ATOM      4  C4  UNL     1      -0.561  25.138  23.434  0.00  0.00    -0.017 A 
ATOM      5  C5  UNL     1      -0.202  26.321  24.130  0.00  0.00    -0.010 A 
ATOM      6  C6  UNL     1      -0.504  27.563  23.511  0.00  0.00    +0.009 A 
ATOM      7  C7  UNL     1       0.440  26.212  25.409  0.00  0.00    -0.010 A 
ATOM      8  C8  UNL     1       0.818  27.348  26.144  0.00  0.00    +0.010 A 
ATOM      9  C9  UNL     1       1.439  27.246  27.378  0.00  0.00    +0.010 A 
ATOM     10  C10 UNL     1       1.726  25.999  27.968  0.00  0.00    -0.010 A 
ATOM     11  C11 UNL     1       1.356  24.822  27.252  0.00  0.00    -0.010 A 
ATOM     12  C12 UNL     1       0.712  24.925  25.969  0.00  0.00    -0.010 A 
ATOM     13  C13 UNL     1       0.329  23.783  25.225  0.00  0.00    +0.010 A 
ATOM     14  C14 UNL     1      -0.292  23.892  23.989  0.00  0.00    +0.009 A 
ATOM     15  C15 UNL     1       1.644  23.575  27.842  0.00  0.00    +0.010 A 
ATOM     16  C16 UNL     1       2.264  23.472  29.077  0.00  0.00    +0.010 A 
ATOM     17  C17 UNL     1       2.642  24.609  29.812  0.00  0.00    -0.010 A 
ATOM     18  C18 UNL     1       2.371  25.895  29.252  0.00  0.00    -0.010 A 
ATOM     19  C19 UNL     1       2.753  27.038  29.995  0.00  0.00    +0.010 A 
ATOM     20  C20 UNL     1       3.375  26.929  31.231  0.00  0.00    +0.009 A 
ATOM     21  C21 UNL     1       3.644  25.683  31.786  0.00  0.00    -0.017 A 
ATOM     22  C22 UNL     1       3.284  24.499  31.090  0.00  0.00    -0.010 A 
ATOM     23  C23 UNL     1       3.587  23.257  31.709  0.00  0.00    +0.009 A 
ATOM     24  C24 UNL     1       4.213  23.207  32.957  0.00  0.00    +0.001 A 
ATOM     25  C25 UNL     1       4.556  24.381  33.621  0.00  0.00    +0.001 A 
ATOM     26  C26 UNL     1       4.274  25.614  33.040  0.00  0.00    +0.008 A 
ENDROOT
TORSDOF 0
ENDMDL
MODEL 9
REMARK minimizedAffinity -7.57015657
REMARK minimizedRMSD -1
REMARK  Name = /home/tchapet/Post-Doc/ARTICLES-DOSSIERS-DES-ARTICLES-EN-REDACTION/NOUVELS-AXES-DE-RECHERCHE-A-REGARDER-URGEMMENT/ARTICLES-EN-REDACTIONS/ARTICLE_MVOTO/Paper2_JCIM/docking_rerun/ligands/9168.pdb
REMARK  0 active torsions:
REMARK  status: ('A' for Active; 'I' for Inactive)
REMARK                            x       y       z     vdW  Elec       q    Type
REMARK                         _______ _______ _______ _____ _____    ______ ____
ROOT
ATOM      1  C1  UNL     1       4.154   5.541  21.693  0.00  0.00    +0.001 A 
ATOM      2  C2  UNL     1       4.035   5.101  20.379  0.00  0.00    +0.001 A 
ATOM      3  C3  UNL     1       3.343   5.872  19.451  0.00  0.00    +0.008 A 
ATOM      4  C4  UNL     1       2.761   7.093  19.830  0.00  0.00    -0.017 A 
ATOM      5  C5  UNL     1       2.869   7.563  21.165  0.00  0.00    -0.010 A 
ATOM      6  C6  UNL     1       3.582   6.753  22.089  0.00  0.00    +0.009 A 
ATOM      7  C7  UNL     1       2.263   8.815  21.517  0.00  0.00    -0.010 A 
ATOM      8  C8  UNL     1       2.338   9.330  22.822  0.00  0.00    +0.010 A 
ATOM      9  C9  UNL     1       1.753  10.538  23.165  0.00  0.00    +0.010 A 
ATOM     10  C10 UNL     1       1.051  11.321  22.226  0.00  0.00    -0.010 A 
ATOM     11  C11 UNL     1       0.955  10.831  20.889  0.00  0.00    -0.010 A 
ATOM     12  C12 UNL     1       1.561   9.575  20.531  0.00  0.00    -0.010 A 
ATOM     13  C13 UNL     1       1.488   9.053  19.217  0.00  0.00    +0.010 A 
ATOM     14  C14 UNL     1       2.076   7.842  18.880  0.00  0.00    +0.009 A 
ATOM     15  C15 UNL     1       0.253  11.613  19.951  0.00  0.00    +0.010 A 
ATOM     16  C16 UNL     1      -0.332  12.822  20.293  0.00  0.00    +0.010 A 
ATOM     17  C17 UNL     1      -0.257  13.337  21.599  0.00  0.00    -0.010 A 
ATOM     18  C18 UNL     1       0.445  12.576  22.585  0.00  0.00    -0.010 A 
ATOM     19  C19 UNL     1       0.518  13.099  23.899  0.00  0.00    +0.010 A 
ATOM     20  C20 UNL     1      -0.070  14.310  24.236  0.00  0.00    +0.009 A 
ATOM     21  C21 UNL     1      -0.755  15.058  23.285  0.00  0.00    -0.017 A 
ATOM     22  C22 UNL     1      -0.863  14.589  21.950  0.00  0.00    -0.010 A 
ATOM     23  C23 UNL     1      -1.576  15.398  21.027  0.00  0.00    +0.009 A 
ATOM     24  C24 UNL     1      -2.148  16.611  21.421  0.00  0.00    +0.001 A 
ATOM     25  C25 UNL     1      -2.029  17.050  22.736  0.00  0.00    +0.001 A 
ATOM     26  C26 UNL     1      -1.337  16.280  23.665  0.00  0.00    +0.008 A 
ENDROOT
TORSDOF 0
ENDMDL
