REMARK  Name = /home/tchapet/Post-Doc/ARTICLES-DOSSIERS-DES-ARTICLES-EN-REDACTION/NOUVELS-AXES-DE-RECHERCHE-A-REGARDER-URGEMMENT/ARTICLES-EN-REDACTIONS/ARTICLE_MVOTO/Paper2_Sensors_ActuatorsB/docking_rerun/ligands/1712.pdb
REMARK  6 active torsions:
REMARK  status: ('A' for Active; 'I' for Inactive)
REMARK    1  A    between atoms: C4_6  and  C5_7
REMARK    2  A    between atoms: C5_7  and  N2_8
REMARK    3  A    between atoms: N2_8  and  C6_9
REMARK    4  A    between atoms: C9_12  and  S1_15
REMARK    5  A    between atoms: S1_15  and  N3_18
REMARK    6  A    between atoms: N3_18  and  C12_19
REMARK                            x       y       z     vdW  Elec       q    Type
REMARK                         _______ _______ _______ _____ _____    ______ ____
ROOT
ATOM      1  C6  UNL     1       0.075  -0.259   0.418  0.00  0.00    +0.027 A 
ATOM      2  C7  UNL     1      -0.511   1.008   0.267  0.00  0.00    +0.025 A 
ATOM      3  C8  UNL     1      -1.620   1.374   1.035  0.00  0.00    +0.030 A 
ATOM      4  C9  UNL     1      -2.163   0.476   1.961  0.00  0.00    +0.109 A 
ATOM      5  C10 UNL     1      -1.583  -0.788   2.121  0.00  0.00    +0.030 A 
ATOM      6  C11 UNL     1      -0.473  -1.156   1.354  0.00  0.00    +0.025 A 
ENDROOT
BRANCH   4   7
ATOM      7  S1  UNL     1      -3.569   0.941   2.914  0.00  0.00    +0.073 S 
ATOM      8  O2  UNL     1      -3.118   1.786   4.072  0.00  0.00    -0.150 OA
ATOM      9  O3  UNL     1      -4.277  -0.276   3.439  0.00  0.00    -0.150 OA
BRANCH   7  10
ATOM     10  N3  UNL     1      -4.669   1.851   1.931  0.00  0.00    -0.199 N 
ATOM     11  H8  UNL     1      -4.920   2.818   2.237  0.00  0.00    +0.175 HD
BRANCH  10  12
ATOM     12  C12 UNL     1      -5.212   1.323   0.715  0.00  0.00    +0.138 A 
ATOM     13  C13 UNL     1      -6.064   2.107  -0.074  0.00  0.00    +0.045 A 
ATOM     14  C14 UNL     1      -6.578   1.579  -1.261  0.00  0.00    +0.005 A 
ATOM     15  C15 UNL     1      -6.240   0.282  -1.649  0.00  0.00    +0.020 A 
ATOM     16  C16 UNL     1      -5.389  -0.472  -0.839  0.00  0.00    +0.113 A 
ATOM     17  N4  UNL     1      -4.899   0.058   0.313  0.00  0.00    -0.239 NA
ENDBRANCH  10  12
ENDBRANCH   7  10
ENDBRANCH   4   7
BRANCH   1  18
ATOM     18  N2  UNL     1       1.218  -0.605  -0.386  0.00  0.00    -0.340 N 
ATOM     19  H3  UNL     1       1.553   0.092  -1.091  0.00  0.00    +0.146 HD
BRANCH  18  20
ATOM     20  C5  UNL     1       1.948  -1.867  -0.241  0.00  0.00    +0.143 C 
BRANCH  20  26
ATOM     21  O1  UNL     1       2.482  -3.411  -2.891  0.00  0.00    -0.268 OA
ATOM     22  C1  UNL     1       3.322  -2.627  -2.378  0.00  0.00    +0.266 C 
ATOM     23  N1  UNL     1       4.590  -2.332  -2.955  0.00  0.00    -0.176 NA
ATOM     24  C2  UNL     1       5.107  -1.488  -2.119  0.00  0.00    +0.066 A 
ATOM     25  C3  UNL     1       4.284  -1.198  -1.033  0.00  0.00    +0.024 A 
ATOM     26  C4  UNL     1       3.154  -1.890  -1.134  0.00  0.00    +0.043 C 
ATOM     27  C17 UNL     1       4.719  -0.283  -0.072  0.00  0.00    +0.048 A 
ATOM     28  S2  UNL     1       3.980   0.287   1.326  0.00  0.00    -0.075 S 
ATOM     29  C18 UNL     1       5.288   1.288   1.713  0.00  0.00    +0.157 A 
ATOM     30  N5  UNL     1       6.282   1.198   0.795  0.00  0.00    -0.247 NA
ATOM     31  C19 UNL     1       5.965   0.325  -0.196  0.00  0.00    +0.079 A 
ATOM     32  C20 UNL     1       6.803   0.032  -1.286  0.00  0.00    +0.031 A 
ATOM     33  C21 UNL     1       6.369  -0.887  -2.264  0.00  0.00    +0.028 A 
ENDBRANCH  20  26
ENDBRANCH  18  20
ENDBRANCH   1  18
TORSDOF 6
