REMARK  Name = /home/tchapet/Post-Doc/ARTICLES-DOSSIERS-DES-ARTICLES-EN-REDACTION/NOUVELS-AXES-DE-RECHERCHE-A-REGARDER-URGEMMENT/ARTICLES-EN-REDACTIONS/ARTICLE_MVOTO/Paper2_JCIM/docking_rerun/ligands/17574.pdb
REMARK  8 active torsions:
REMARK  status: ('A' for Active; 'I' for Inactive)
REMARK    1  A    between atoms: C1_1  and  C2_2
REMARK    2  A    between atoms: N1_4  and  C3_5
REMARK    3  A    between atoms: N1_4  and  C23_33
REMARK    4  A    between atoms: C6_8  and  N2_11
REMARK    5  A    between atoms: N2_11  and  C9_12
REMARK    6  A    between atoms: C11_14  and  S1_29
REMARK    7  A    between atoms: C12_15  and  N3_28
REMARK    8  A    between atoms: S1_29  and  O6_32
REMARK                            x       y       z     vdW  Elec       q    Type
REMARK                         _______ _______ _______ _____ _____    ______ ____
ROOT
ATOM      1  C9  UNL     1      -1.250  -1.458  -1.011  0.00  0.00    +0.045 A 
ATOM      2  C10 UNL     1      -1.739  -2.737  -0.752  0.00  0.00    +0.055 A 
ATOM      3  C11 UNL     1      -2.939  -2.927  -0.069  0.00  0.00    +0.140 A 
ATOM      4  C12 UNL     1      -3.656  -1.810   0.414  0.00  0.00    +0.064 A 
ATOM      5  C13 UNL     1      -3.145  -0.498   0.201  0.00  0.00    +0.057 A 
ATOM      6  C14 UNL     1      -1.984  -0.320  -0.594  0.00  0.00    +0.056 A 
ATOM      7  C15 UNL     1      -1.586   1.058  -1.007  0.00  0.00    +0.196 C 
ATOM      8  O2  UNL     1      -0.700   1.230  -1.888  0.00  0.00    -0.287 OA
ATOM      9  C16 UNL     1      -2.272   2.238  -0.440  0.00  0.00    +0.033 A 
ATOM     10  C17 UNL     1      -1.871   3.540  -0.795  0.00  0.00    +0.012 A 
ATOM     11  C18 UNL     1      -2.522   4.652  -0.258  0.00  0.00    +0.001 A 
ATOM     12  C19 UNL     1      -3.576   4.479   0.638  0.00  0.00    +0.001 A 
ATOM     13  C20 UNL     1      -3.983   3.193   1.000  0.00  0.00    +0.012 A 
ATOM     14  C21 UNL     1      -3.336   2.063   0.463  0.00  0.00    +0.033 A 
ATOM     15  C22 UNL     1      -3.757   0.699   0.852  0.00  0.00    +0.196 C 
ATOM     16  O3  UNL     1      -4.583   0.564   1.795  0.00  0.00    -0.287 OA
ENDROOT
BRANCH   4  17
ATOM     17  N3  UNL     1      -4.925  -2.006   1.057  0.00  0.00    -0.356 N 
ATOM     18  H14 UNL     1      -5.131  -2.863   1.614  0.00  0.00    +0.142 HD
ATOM     19  H15 UNL     1      -5.717  -1.349   0.887  0.00  0.00    +0.142 HD
ENDBRANCH   4  17
BRANCH   3  20
ATOM     20  S1  UNL     1      -3.532  -4.581   0.150  0.00  0.00    +0.111 S 
ATOM     21  O4  UNL     1      -3.483  -4.940   1.609  0.00  0.00    -0.142 OA
ATOM     22  O5  UNL     1      -4.944  -4.680  -0.355  0.00  0.00    -0.142 OA
BRANCH  20  23
ATOM     23  O6  UNL     1      -2.574  -5.662  -0.713  0.00  0.00    -0.250 OA
ATOM     24  H16 UNL     1      -2.964  -6.554  -0.527  0.00  0.00    +0.245 HD
ENDBRANCH  20  23
ENDBRANCH   3  20
BRANCH   1  25
ATOM     25  N2  UNL     1       0.015  -1.345  -1.681  0.00  0.00    -0.314 N 
ATOM     26  H8  UNL     1       0.105  -1.803  -2.616  0.00  0.00    +0.152 HD
BRANCH  25  30
ATOM     27  C3  UNL     1       3.557   0.183   0.129  0.00  0.00    +0.036 A 
ATOM     28  C4  UNL     1       3.530  -0.147  -1.234  0.00  0.00    +0.025 A 
ATOM     29  C5  UNL     1       2.365  -0.652  -1.817  0.00  0.00    +0.025 A 
ATOM     30  C6  UNL     1       1.204  -0.831  -1.050  0.00  0.00    +0.031 A 
ATOM     31  C7  UNL     1       1.233  -0.505   0.319  0.00  0.00    +0.025 A 
ATOM     32  C8  UNL     1       2.398   0.001   0.901  0.00  0.00    +0.025 A 
BRANCH  27  36
ATOM     33  C1  UNL     1       7.291   0.565   1.126  0.00  0.00    +0.109 C 
ATOM     34  C2  UNL     1       6.004  -0.006   0.609  0.00  0.00    +0.216 C 
ATOM     35  O1  UNL     1       6.026  -1.147   0.070  0.00  0.00    -0.276 OA
ATOM     36  N1  UNL     1       4.757   0.714   0.727  0.00  0.00    -0.275 N 
ATOM     37  C23 UNL     1       4.669   1.918   1.560  0.00  0.00    +0.138 C 
ENDBRANCH  27  36
ENDBRANCH  25  30
ENDBRANCH   1  25
TORSDOF 6
