REMARK  Name = /home/tchapet/Post-Doc/ARTICLES-DOSSIERS-DES-ARTICLES-EN-REDACTION/NOUVELS-AXES-DE-RECHERCHE-A-REGARDER-URGEMMENT/ARTICLES-EN-REDACTIONS/ARTICLE_MVOTO/Paper2_Sensors_ActuatorsB/docking_rerun/ligands/17851.pdb
REMARK  7 active torsions:
REMARK  status: ('A' for Active; 'I' for Inactive)
REMARK    1  A    between atoms: C1_1  and  C2_2
REMARK    2  A    between atoms: C2_2  and  N1_3
REMARK    3  A    between atoms: N1_3  and  C3_4
REMARK    4  A    between atoms: N3_7  and  N4_8
REMARK    5  A    between atoms: N8_13  and  C6_14
REMARK    6  A    between atoms: C6_14  and  C7_15
REMARK    7  A    between atoms: C6_14  and  C8_16
REMARK                            x       y       z     vdW  Elec       q    Type
REMARK                         _______ _______ _______ _____ _____    ______ ____
ROOT
ATOM      1  C3  UNL     1       1.544  -0.390  -0.223  0.00  0.00    +0.241 A 
ATOM      2  N2  UNL     1       1.352   0.952  -0.134  0.00  0.00    -0.178 NA
ATOM      3  C4  UNL     1       0.106   1.452   0.070  0.00  0.00    +0.252 A 
ATOM      4  N3  UNL     1      -0.101   2.862   0.164  0.00  0.00    -0.126 N 
ATOM      5  N6  UNL     1      -0.947   0.605   0.186  0.00  0.00    -0.179 NA
ATOM      6  C5  UNL     1      -0.764  -0.739   0.099  0.00  0.00    +0.221 A 
ATOM      7  N7  UNL     1       0.485  -1.230  -0.106  0.00  0.00    -0.180 NA
ATOM      8  N8  UNL     1      -1.870  -1.648   0.220  0.00  0.00    -0.311 N 
ATOM      9  H6  UNL     1      -1.063   3.237   0.322  0.00  0.00    +0.193 HD
ATOM     10  H7  UNL     1      -1.663  -2.669   0.143  0.00  0.00    +0.149 HD
ENDROOT
BRANCH   8  11
ATOM     11  C6  UNL     1      -3.269  -1.259   0.442  0.00  0.00    +0.067 C 
ATOM     12  C7  UNL     1      -3.443  -0.540   1.784  0.00  0.00    +0.027 C 
ATOM     13  C8  UNL     1      -3.810  -0.427  -0.726  0.00  0.00    +0.027 C 
ENDBRANCH   8  11
BRANCH   4  14
ATOM     14  N4  UNL     1       0.938   3.727   0.051  0.00  0.00    -0.126 NA
ATOM     15  N5  UNL     1       1.796   4.442  -0.042  0.00  0.00    -0.017 NA
ENDBRANCH   4  14
BRANCH   1  16
ATOM     16  N1  UNL     1       2.850  -0.927  -0.438  0.00  0.00    -0.216 NA
BRANCH  16  18
ATOM     17  C1  UNL     1       5.260  -0.967  -0.792  0.00  0.00    +0.026 C 
ATOM     18  C2  UNL     1       4.036  -0.091  -0.574  0.00  0.00    +0.128 C 
ENDBRANCH  16  18
ENDBRANCH   1  16
TORSDOF 4
