REMARK  Name = /home/tchapet/Post-Doc/ARTICLES-DOSSIERS-DES-ARTICLES-EN-REDACTION/NOUVELS-AXES-DE-RECHERCHE-A-REGARDER-URGEMMENT/ARTICLES-EN-REDACTIONS/ARTICLE_MVOTO/Paper2_JCIM/docking_rerun/ligands/18506.pdb
REMARK  6 active torsions:
REMARK  status: ('A' for Active; 'I' for Inactive)
REMARK    1  A    between atoms: C1_1  and  C2_2
REMARK    2  A    between atoms: C2_2  and  C3_3
REMARK    3  A    between atoms: C3_3  and  C4_4
REMARK    4  A    between atoms: C4_4  and  N1_5
REMARK    5  A    between atoms: C9_12  and  N2_13
REMARK    6  A    between atoms: C12_16  and  N3_17
REMARK                            x       y       z     vdW  Elec       q    Type
REMARK                         _______ _______ _______ _____ _____    ______ ____
ROOT
ATOM      1  N1  UNL     1      -2.602  -0.180  -1.545  0.00  0.00    -0.275 N 
ATOM      2  C5  UNL     1      -1.908   0.938  -1.237  0.00  0.00    +0.264 A 
ATOM      3  O1  UNL     1      -2.418   2.090  -1.208  0.00  0.00    -0.267 OA
ATOM      4  C6  UNL     1      -0.589   0.624  -0.934  0.00  0.00    +0.075 A 
ATOM      5  C7  UNL     1      -0.478  -0.738  -1.047  0.00  0.00    +0.075 A 
ATOM      6  C8  UNL     1      -1.732  -1.206  -1.415  0.00  0.00    +0.264 A 
ATOM      7  O2  UNL     1      -2.049  -2.414  -1.585  0.00  0.00    -0.267 OA
ATOM      8  C9  UNL     1       0.701  -1.416  -0.726  0.00  0.00    +0.050 A 
ATOM      9  C10 UNL     1       1.843  -0.643  -0.333  0.00  0.00    +0.056 A 
ATOM     10  C11 UNL     1       1.725   0.790  -0.213  0.00  0.00    +0.056 A 
ATOM     11  C12 UNL     1       0.468   1.422  -0.489  0.00  0.00    +0.050 A 
ATOM     12  C13 UNL     1       2.877   1.549   0.134  0.00  0.00    +0.196 A 
ATOM     13  O3  UNL     1       2.832   2.810   0.158  0.00  0.00    -0.287 OA
ATOM     14  C14 UNL     1       4.098   0.916   0.428  0.00  0.00    +0.033 A 
ATOM     15  C15 UNL     1       4.213  -0.486   0.311  0.00  0.00    +0.033 A 
ATOM     16  C16 UNL     1       3.107  -1.252  -0.100  0.00  0.00    +0.196 A 
ATOM     17  O4  UNL     1       3.267  -2.490  -0.285  0.00  0.00    -0.287 OA
ATOM     18  C17 UNL     1       5.454  -1.102   0.589  0.00  0.00    +0.012 A 
ATOM     19  C18 UNL     1       6.555  -0.340   0.981  0.00  0.00    +0.001 A 
ATOM     20  C19 UNL     1       6.441   1.043   1.096  0.00  0.00    +0.001 A 
ATOM     21  C20 UNL     1       5.226   1.670   0.821  0.00  0.00    +0.012 A 
ENDROOT
BRANCH   8  22
ATOM     22  N2  UNL     1       0.712  -2.850  -0.750  0.00  0.00    -0.357 N 
ATOM     23  H10 UNL     1       0.209  -3.379  -1.494  0.00  0.00    +0.142 HD
ATOM     24  H11 UNL     1       1.091  -3.394   0.057  0.00  0.00    +0.142 HD
ENDBRANCH   8  22
BRANCH  11  25
ATOM     25  N3  UNL     1       0.246   2.823  -0.277  0.00  0.00    -0.357 N 
ATOM     26  H12 UNL     1      -0.346   3.379  -0.931  0.00  0.00    +0.142 HD
ATOM     27  H13 UNL     1       0.543   3.281   0.614  0.00  0.00    +0.142 HD
ENDBRANCH  11  25
BRANCH   1  28
ATOM     28  C4  UNL     1      -4.029  -0.274  -1.865  0.00  0.00    +0.128 C 
BRANCH  28  29
ATOM     29  C3  UNL     1      -4.844  -0.734  -0.649  0.00  0.00    +0.021 C 
BRANCH  29  31
ATOM     30  C1  UNL     1      -5.704  -0.146   1.650  0.00  0.00    +0.004 C 
ATOM     31  C2  UNL     1      -4.813   0.292   0.492  0.00  0.00    -0.002 C 
ENDBRANCH  29  31
ENDBRANCH  28  29
ENDBRANCH   1  28
TORSDOF 5
