REMARK  Name = /home/tchapet/Post-Doc/ARTICLES-DOSSIERS-DES-ARTICLES-EN-REDACTION/NOUVELS-AXES-DE-RECHERCHE-A-REGARDER-URGEMMENT/ARTICLES-EN-REDACTIONS/ARTICLE_MVOTO/Paper2_JCIM/docking_rerun/ligands/20549.pdb
REMARK  8 active torsions:
REMARK  status: ('A' for Active; 'I' for Inactive)
REMARK    1  A    between atoms: O1_1  and  C1_2
REMARK    2  A    between atoms: C1_2  and  C2_3
REMARK    3  A    between atoms: C2_3  and  N1_4
REMARK    4  A    between atoms: N1_4  and  C3_5
REMARK    5  A    between atoms: C6_8  and  N2_21
REMARK    6  A    between atoms: N2_21  and  C17_22
REMARK    7  A    between atoms: C17_22  and  C18_23
REMARK    8  A    between atoms: C18_23  and  O4_24
REMARK                            x       y       z     vdW  Elec       q    Type
REMARK                         _______ _______ _______ _____ _____    ______ ____
ROOT
ATOM      1  C3  UNL     1      -0.721  -1.327   1.081  0.00  0.00    +0.039 A 
ATOM      2  C4  UNL     1       0.489  -1.856   1.544  0.00  0.00    +0.025 A 
ATOM      3  C5  UNL     1       1.672  -1.140   1.425  0.00  0.00    +0.025 A 
ATOM      4  C6  UNL     1       1.686   0.130   0.839  0.00  0.00    +0.039 A 
ATOM      5  C7  UNL     1       0.483   0.673   0.313  0.00  0.00    +0.056 A 
ATOM      6  C8  UNL     1      -0.729  -0.061   0.434  0.00  0.00    +0.056 A 
ATOM      7  C9  UNL     1      -1.977   0.504  -0.164  0.00  0.00    +0.196 C 
ATOM      8  O2  UNL     1      -2.992  -0.221  -0.344  0.00  0.00    -0.287 OA
ATOM      9  C10 UNL     1      -2.017   1.914  -0.605  0.00  0.00    +0.033 A 
ATOM     10  C11 UNL     1      -0.818   2.640  -0.722  0.00  0.00    +0.033 A 
ATOM     11  C12 UNL     1       0.466   1.984  -0.403  0.00  0.00    +0.196 C 
ATOM     12  O3  UNL     1       1.540   2.524  -0.785  0.00  0.00    -0.287 OA
ATOM     13  C13 UNL     1      -0.855   3.973  -1.170  0.00  0.00    +0.012 A 
ATOM     14  C14 UNL     1      -2.073   4.577  -1.490  0.00  0.00    +0.001 A 
ATOM     15  C15 UNL     1      -3.262   3.857  -1.373  0.00  0.00    +0.001 A 
ATOM     16  C16 UNL     1      -3.238   2.531  -0.936  0.00  0.00    +0.012 A 
ENDROOT
BRANCH   1  17
ATOM     17  N1  UNL     1      -1.942  -2.047   1.335  0.00  0.00    -0.341 N 
ATOM     18  H6  UNL     1      -2.773  -1.522   1.690  0.00  0.00    +0.146 HD
BRANCH  17  19
ATOM     19  C2  UNL     1      -2.080  -3.492   1.143  0.00  0.00    +0.129 C 
BRANCH  19  20
ATOM     20  C1  UNL     1      -1.825  -3.882  -0.316  0.00  0.00    +0.174 C 
BRANCH  20  21
ATOM     21  O1  UNL     1      -2.709  -3.210  -1.172  0.00  0.00    -0.393 OA
ATOM     22  H1  UNL     1      -3.593  -3.649  -1.068  0.00  0.00    +0.209 HD
ENDBRANCH  20  21
ENDBRANCH  19  20
ENDBRANCH  17  19
ENDBRANCH   1  17
BRANCH   4  23
ATOM     23  N2  UNL     1       2.909   0.888   0.846  0.00  0.00    -0.341 N 
ATOM     24  H13 UNL     1       2.884   1.885   1.157  0.00  0.00    +0.146 HD
BRANCH  23  25
ATOM     25  C17 UNL     1       4.197   0.330   0.432  0.00  0.00    +0.129 C 
BRANCH  25  26
ATOM     26  C18 UNL     1       4.153  -0.099  -1.036  0.00  0.00    +0.174 C 
BRANCH  26  27
ATOM     27  O4  UNL     1       5.415  -0.547  -1.449  0.00  0.00    -0.393 OA
ATOM     28  H18 UNL     1       5.532  -1.456  -1.066  0.00  0.00    +0.209 HD
ENDBRANCH  26  27
ENDBRANCH  25  26
ENDBRANCH  23  25
ENDBRANCH   4  23
TORSDOF 8
