REMARK  Name = /home/tchapet/Post-Doc/ARTICLES-DOSSIERS-DES-ARTICLES-EN-REDACTION/NOUVELS-AXES-DE-RECHERCHE-A-REGARDER-URGEMMENT/ARTICLES-EN-REDACTIONS/ARTICLE_MVOTO/Paper2_Sensors_ActuatorsB/docking_rerun/ligands/20778.pdb
REMARK  7 active torsions:
REMARK  status: ('A' for Active; 'I' for Inactive)
REMARK    1  A    between atoms: N2_2  and  N3_3
REMARK    2  A    between atoms: C2_6  and  N5_7
REMARK    3  A    between atoms: N5_7  and  C3_8
REMARK    4  A    between atoms: C3_8  and  C4_9
REMARK    5  A    between atoms: C3_8  and  C5_10
REMARK    6  A    between atoms: C6_12  and  S1_14
REMARK    7  A    between atoms: S1_14  and  C7_15
REMARK                            x       y       z     vdW  Elec       q    Type
REMARK                         _______ _______ _______ _____ _____    ______ ____
ROOT
ATOM      1  N3  UNL     1      -2.700  -2.786  -0.906  0.00  0.00    -0.126 N 
ATOM      2  C1  UNL     1      -1.775  -1.814  -0.414  0.00  0.00    +0.252 A 
ATOM      3  N4  UNL     1      -0.502  -1.793  -0.887  0.00  0.00    -0.178 NA
ATOM      4  C2  UNL     1       0.385  -0.875  -0.427  0.00  0.00    +0.240 A 
ATOM      5  N6  UNL     1      -0.007   0.026   0.510  0.00  0.00    -0.187 NA
ATOM      6  C6  UNL     1      -1.277   0.011   0.984  0.00  0.00    +0.194 A 
ATOM      7  N7  UNL     1      -2.161  -0.909   0.523  0.00  0.00    -0.187 NA
ATOM      8  H1  UNL     1      -2.395  -3.478  -1.626  0.00  0.00    +0.193 HD
ENDROOT
BRANCH   1  10
ATOM      9  N1  UNL     1      -5.032  -2.855  -0.074  0.00  0.00    -0.017 NA
ATOM     10  N2  UNL     1      -3.977  -2.824  -0.450  0.00  0.00    -0.126 NA
ENDBRANCH   1  10
BRANCH   6  11
ATOM     11  S1  UNL     1      -1.786   1.204   2.215  0.00  0.00    -0.089 S 
ATOM     12  C7  UNL     1      -2.291   2.436   0.976  0.00  0.00    +0.093 C 
ENDBRANCH   6  11
BRANCH   4  13
ATOM     13  N5  UNL     1       1.722  -0.870  -0.945  0.00  0.00    -0.213 NA
BRANCH  13  14
ATOM     14  C3  UNL     1       2.798   0.053  -0.575  0.00  0.00    +0.091 C 
ATOM     15  C4  UNL     1       2.440   1.498  -0.937  0.00  0.00    +0.029 C 
ATOM     16  C5  UNL     1       3.169  -0.090   0.904  0.00  0.00    +0.029 C 
ENDBRANCH  13  14
ENDBRANCH   4  13
TORSDOF 4
