REMARK  Name = /home/tchapet/Post-Doc/ARTICLES-DOSSIERS-DES-ARTICLES-EN-REDACTION/NOUVELS-AXES-DE-RECHERCHE-A-REGARDER-URGEMMENT/ARTICLES-EN-REDACTIONS/ARTICLE_MVOTO/Paper2_JCIM/docking_rerun/ligands/23424.pdb
REMARK  12 active torsions:
REMARK  status: ('A' for Active; 'I' for Inactive)
REMARK    1  A    between atoms: N1_2  and  C1_3
REMARK    2  A    between atoms: C4_6  and  N2_9
REMARK    3  A    between atoms: N2_9  and  C7_10
REMARK    4  A    between atoms: N2_9  and  C10_17
REMARK    5  A    between atoms: C7_10  and  C8_11
REMARK    6  A    between atoms: C8_11  and  O2_12
REMARK    7  A    between atoms: O2_12  and  S1_13
REMARK    8  A    between atoms: S1_13  and  C9_16
REMARK    9  A    between atoms: C10_17  and  C11_18
REMARK   10  A    between atoms: C11_18  and  O5_19
REMARK   11  A    between atoms: O5_19  and  S2_20
REMARK   12  A    between atoms: S2_20  and  C12_23
REMARK                            x       y       z     vdW  Elec       q    Type
REMARK                         _______ _______ _______ _____ _____    ______ ____
ROOT
ATOM      1  N2  UNL     1       0.206   0.512   0.103  0.00  0.00    -0.325 N 
ENDROOT
BRANCH   1   5
ATOM      2  C1  UNL     1      -1.504  -3.296  -0.713  0.00  0.00    +0.108 A 
ATOM      3  C2  UNL     1      -1.902  -2.172  -1.446  0.00  0.00    +0.033 A 
ATOM      4  C3  UNL     1      -1.336  -0.921  -1.183  0.00  0.00    +0.025 A 
ATOM      5  C4  UNL     1      -0.364  -0.779  -0.180  0.00  0.00    +0.030 A 
ATOM      6  C5  UNL     1       0.033  -1.906   0.556  0.00  0.00    +0.025 A 
ATOM      7  C6  UNL     1      -0.531  -3.157   0.291  0.00  0.00    +0.033 A 
BRANCH   2   9
ATOM      8  O1  UNL     1      -1.784  -5.599  -0.380  0.00  0.00    -0.143 OA
ATOM      9  N1  UNL     1      -2.100  -4.564  -1.003  0.00  0.00    -0.031 NA
ENDBRANCH   2   9
ENDBRANCH   1   5
BRANCH   1  10
ATOM     10  C7  UNL     1       0.904   1.249  -0.960  0.00  0.00    +0.135 C 
BRANCH  10  11
ATOM     11  C8  UNL     1       2.225   0.564  -1.303  0.00  0.00    +0.212 C 
BRANCH  11  12
ATOM     12  O2  UNL     1       2.893   1.321  -2.284  0.00  0.00    -0.237 OA
BRANCH  12  13
ATOM     13  S1  UNL     1       4.321   0.516  -2.719  0.00  0.00    +0.079 S 
ATOM     14  O3  UNL     1       4.982   1.288  -3.825  0.00  0.00    -0.147 OA
ATOM     15  O4  UNL     1       4.011  -0.869  -3.218  0.00  0.00    -0.147 OA
ATOM     16  C9  UNL     1       5.453   0.422  -1.345  0.00  0.00    +0.228 C 
ENDBRANCH  12  13
ENDBRANCH  11  12
ENDBRANCH  10  11
ENDBRANCH   1  10
BRANCH   1  17
ATOM     17  C10 UNL     1       0.077   1.092   1.449  0.00  0.00    +0.135 C 
BRANCH  17  18
ATOM     18  C11 UNL     1      -1.364   1.530   1.712  0.00  0.00    +0.212 C 
BRANCH  18  19
ATOM     19  O5  UNL     1      -2.185   0.393   1.838  0.00  0.00    -0.237 OA
BRANCH  19  20
ATOM     20  S2  UNL     1      -3.809   0.869   1.744  0.00  0.00    +0.079 S 
ATOM     21  O6  UNL     1      -4.672  -0.340   1.971  0.00  0.00    -0.147 OA
ATOM     22  O7  UNL     1      -4.104   1.423   0.378  0.00  0.00    -0.147 OA
ATOM     23  C12 UNL     1      -4.204   2.084   2.986  0.00  0.00    +0.228 C 
ENDBRANCH  19  20
ENDBRANCH  18  19
ENDBRANCH  17  18
ENDBRANCH   1  17
TORSDOF 10
