REMARK  Name = /home/tchapet/Post-Doc/ARTICLES-DOSSIERS-DES-ARTICLES-EN-REDACTION/NOUVELS-AXES-DE-RECHERCHE-A-REGARDER-URGEMMENT/ARTICLES-EN-REDACTIONS/ARTICLE_MVOTO/Paper2_Sensors_ActuatorsB/docking_rerun/ligands/4550.pdb
REMARK  4 active torsions:
REMARK  status: ('A' for Active; 'I' for Inactive)
REMARK    1  A    between atoms: N1_2  and  C1_3
REMARK    2  A    between atoms: C4_6  and  N2_7
REMARK    3  A    between atoms: N2_7  and  O2_8
REMARK    4  A    between atoms: N2_7  and  O3_9
REMARK                            x       y       z     vdW  Elec       q    Type
REMARK                         _______ _______ _______ _____ _____    ______ ____
ROOT
ATOM      1  C1  UNL     1       3.236  -0.903  -0.227  0.00  0.00    +0.180 C 
ATOM      2  C2  UNL     1       2.052  -0.318  -0.205  0.00  0.00    +0.034 A 
ATOM      3  C3  UNL     1       1.743   1.032  -0.309  0.00  0.00    +0.043 A 
ATOM      4  C4  UNL     1       0.392   1.429  -0.256  0.00  0.00    +0.099 A 
ATOM      5  C5  UNL     1      -0.638   0.440  -0.141  0.00  0.00    -0.014 A 
ATOM      6  C6  UNL     1      -0.286  -0.937  -0.004  0.00  0.00    -0.018 A 
ATOM      7  C7  UNL     1       1.070  -1.284  -0.054  0.00  0.00    +0.070 A 
ATOM      8  N3  UNL     1       1.539  -2.494   0.021  0.00  0.00    -0.174 NA
ATOM      9  C8  UNL     1       2.948  -2.316  -0.084  0.00  0.00    +0.290 C 
ATOM     10  O4  UNL     1       3.786  -3.254  -0.055  0.00  0.00    -0.266 OA
ATOM     11  C9  UNL     1      -1.329  -2.032   0.077  0.00  0.00    +0.037 C 
ATOM     12  C10 UNL     1      -2.717  -1.505   0.438  0.00  0.00    +0.005 C 
ATOM     13  C11 UNL     1      -3.059  -0.296  -0.425  0.00  0.00    +0.005 C 
ATOM     14  C12 UNL     1      -2.098   0.856  -0.126  0.00  0.00    +0.038 C 
ENDROOT
BRANCH   1  16
ATOM     15  O1  UNL     1       5.560  -0.928  -0.378  0.00  0.00    -0.143 OA
ATOM     16  N1  UNL     1       4.505  -0.263  -0.368  0.00  0.00    -0.025 NA
ENDBRANCH   1  16
BRANCH   4  17
ATOM     17  N2  UNL     1       0.090   2.837  -0.321  0.00  0.00    -0.128 N 
BRANCH  17  18
ATOM     18  O2  UNL     1      -0.904   3.374   0.428  0.00  0.00    -0.262 OA
ATOM     19  H2  UNL     1      -0.471   3.621   1.285  0.00  0.00    +0.247 HD
ENDBRANCH  17  18
BRANCH  17  20
ATOM     20  O3  UNL     1       0.838   3.658  -1.099  0.00  0.00    -0.262 OA
ATOM     21  H3  UNL     1       1.548   4.003  -0.499  0.00  0.00    +0.247 HD
ENDBRANCH  17  20
ENDBRANCH   4  17
TORSDOF 4
