REMARK  Name = /home/tchapet/Post-Doc/ARTICLES-DOSSIERS-DES-ARTICLES-EN-REDACTION/NOUVELS-AXES-DE-RECHERCHE-A-REGARDER-URGEMMENT/ARTICLES-EN-REDACTIONS/ARTICLE_MVOTO/Paper2_JCIM/docking_rerun/ligands/5081.pdb
REMARK  6 active torsions:
REMARK  status: ('A' for Active; 'I' for Inactive)
REMARK    1  A    between atoms: C1_1  and  C2_2
REMARK    2  A    between atoms: C2_2  and  O1_3
REMARK    3  A    between atoms: O1_3  and  C3_4
REMARK    4  A    between atoms: C3_4  and  C4_6
REMARK    5  A    between atoms: N3_12  and  C8_13
REMARK    6  A    between atoms: C14_20  and  N4_22
REMARK                            x       y       z     vdW  Elec       q    Type
REMARK                         _______ _______ _______ _____ _____    ______ ____
ROOT
ATOM      1  C4  UNL     1       1.226  -1.431  -0.001  0.00  0.00    +0.170 A 
ATOM      2  N1  UNL     1       0.558  -2.425   0.622  0.00  0.00    -0.228 NA
ATOM      3  C5  UNL     1      -0.722  -2.002   0.667  0.00  0.00    +0.205 A 
ATOM      4  N2  UNL     1      -0.886  -0.784   0.111  0.00  0.00    -0.300 N 
ATOM      5  C6  UNL     1       0.328  -0.424  -0.336  0.00  0.00    +0.075 A 
ATOM      6  C7  UNL     1       0.574   0.891  -1.001  0.00  0.00    +0.163 C 
ATOM      7  N3  UNL     1       0.348   1.950  -0.020  0.00  0.00    -0.295 N 
ATOM      8  C8  UNL     1       1.472   2.768   0.447  0.00  0.00    +0.132 C 
ATOM      9  C9  UNL     1      -0.973   2.193   0.513  0.00  0.00    +0.249 C 
ATOM     10  O3  UNL     1      -1.145   3.164   1.302  0.00  0.00    -0.270 OA
ATOM     11  C10 UNL     1      -2.161   1.370   0.142  0.00  0.00    +0.063 A 
ATOM     12  C11 UNL     1      -2.115  -0.044  -0.014  0.00  0.00    +0.060 A 
ATOM     13  C12 UNL     1      -3.302  -0.743  -0.291  0.00  0.00    +0.029 A 
ATOM     14  C13 UNL     1      -4.517  -0.071  -0.419  0.00  0.00    +0.033 A 
ATOM     15  C14 UNL     1      -4.573   1.321  -0.265  0.00  0.00    +0.101 A 
ATOM     16  C15 UNL     1      -3.401   2.027   0.019  0.00  0.00    +0.045 A 
ENDROOT
BRANCH  15  17
ATOM     17  N4  UNL     1      -5.805   2.045  -0.387  0.00  0.00    -0.072 NA
ATOM     18  N5  UNL     1      -6.875   1.488  -0.634  0.00  0.00    -0.162 NA
ATOM     19  N6  UNL     1      -7.945   0.934  -0.881  0.00  0.00    +0.068 NA
ENDBRANCH  15  17
BRANCH   1  20
ATOM     20  C3  UNL     1       2.684  -1.481  -0.213  0.00  0.00    +0.360 C 
ATOM     21  O2  UNL     1       3.304  -0.497  -0.696  0.00  0.00    -0.243 OA
BRANCH  20  22
ATOM     22  O1  UNL     1       3.376  -2.644   0.144  0.00  0.00    -0.460 OA
BRANCH  22  24
ATOM     23  C1  UNL     1       5.489  -2.025   1.168  0.00  0.00    +0.048 C 
ATOM     24  C2  UNL     1       4.793  -2.779   0.041  0.00  0.00    +0.229 C 
ENDBRANCH  22  24
ENDBRANCH  20  22
ENDBRANCH   1  20
TORSDOF 4
